VARIABLES = X Y Z
ZONE N =28, E =26, DATAPACKING = POINT, ZONETYPE = FETRIANGLE
7  5  -1
7  18  -1
6.94188  18  -0.521369
6.77091  18  -0.0705537
6.49702  18  0.326245
6.13613  18  0.645968
5.70921  18  0.870032
5.24107  18  0.985418
4.75893  18  0.985418
4.29079  18  0.870032
3.86387  18  0.645968
3.50298  18  0.326245
3.22909  18  -0.0705537
3.05812  18  -0.521369
3  18  -1
3  5  -1
6.94188  5  -0.521369
6.77091  5  -0.0705537
6.49702  5  0.326245
6.13613  5  0.645968
5.70921  5  0.870032
5.24107  5  0.985418
4.75893  5  0.985418
4.29079  5  0.870032
3.86387  5  0.645968
3.50298  5  0.326245
3.22909  5  -0.0705537
3.05812  5  -0.521369
17  1  2
17  2  3
18  3  4
18  17  3
19  4  5
19  18  4
20  5  6
20  19  5
21  6  7
21  20  6
22  7  8
22  21  7
23  8  9
23  22  8
24  9  10
24  23  9
25  10  11
25  24  10
26  11  12
26  25  11
27  12  13
27  26  12
28  13  14
28  14  15
28  27  13
16  28  15
VARIABLES = X Y Z
ZONE N =190, E =332, DATAPACKING = POINT, ZONETYPE = FETRIANGLE
7  18  -1
7.05014  18.445  -1
7.19806  18.8678  -1
7.43634  19.247  -1
7.75302  19.5637  -1
8.13223  19.8019  -1
8.55496  19.9499  -1
9  20  -1
6.94188  18  -0.521369
6.77091  18  -0.0705537
6.49702  18  0.326245
6.13613  18  0.645968
5.70921  18  0.870032
5.24107  18  0.985418
4.75893  18  0.985418
4.29079  18  0.870032
3.86387  18  0.645968
3.50298  18  0.326245
3.22909  18  -0.0705537
3.05812  18  -0.521369
3  18  -1
2.94986  18.445  -1
2.80194  18.8678  -1
2.56366  19.247  -1
2.24698  19.5637  -1
1.86777  19.8019  -1
1.44504  19.9499  -1
1  20  -1
8.94545  20  -0.341622
8.78327  20  0.298798
8.5179  20  0.90379
8.15656  20  1.45685
7.70913  20  1.9429
7.18779  20  2.34867
6.60678  20  2.66309
5.98194  20  2.8776
5.33032  20  2.98634
4.66968  20  2.98634
4.01806  20  2.8776
3.39322  20  2.66309
2.81221  20  2.34867
2.29087  20  1.9429
1.84344  20  1.45685
1.4821  20  0.90379
1.21673  20  0.298798
1.05455  20  -0.341622
7.02218  18.445  -0.662557
6.99057  18.445  -0.509368
7.16808  18.8678  -0.638211
6.93906  18.445  -0.334319
7.13419  18.8678  -0.473969
7.40311  19.247  -0.598992
6.81531  18.445  -0.0472505
7.07897  18.8678  -0.28629
7.36554  19.247  -0.416946
7.71547  19.5637  -0.546868
6.94629  18.8678  0.0214905
7.30433  19.247  -0.208923
6.61785  18.445  0.259225
7.67302  19.5637  -0.341159
6.53455  18.445  0.359497
8.08951  19.8019  -0.484451
7.15727  19.247  0.132222
7.60385  19.5637  -0.106096
6.73458  18.8678  0.350078
6.38852  18.445  0.50834
8.04122  19.8019  -0.250408
6.64527  18.8678  0.457585
8.50647  19.9499  -0.414873
7.43768  19.5637  0.279392
7.96252  19.8019  0.0170342
6.16461  18.445  0.687236
6.92261  19.247  0.496429
6.48871  18.8678  0.617167
8.45166  19.9499  -0.149243
6.82362  19.247  0.61559
7.77345  19.8019  0.455621
8.36234  19.9499  0.154293
6.24864  18.8678  0.80897
7.17252  19.5637  0.69094
6.65009  19.247  0.792471
5.82353  18.445  0.877467
7.06067  19.5637  0.82559
5.72699  18.445  0.916918
8.14776  19.9499  0.652071
6.384  19.247  1.00507
7.47177  19.8019  0.923857
6.86457  19.5637  1.02546
5.88295  18.8678  1.01293
5.50328  18.445  0.98741
7.34451  19.8019  1.07705
5.77944  18.8678  1.05522
6.56389  19.5637  1.26569
7.80536  19.9499  1.1835
5.24712  18.445  1.0352
7.1214  19.8019  1.30446
5.97867  19.247  1.23113
5.53959  18.8678  1.1308
7.66092  19.9499  1.35737
5.86394  19.247  1.27801
6.77931  19.8019  1.57778
5.26495  18.8678  1.18204
7.40771  19.9499  1.61547
6.10588  19.5637  1.52114
5.59809  19.247  1.36179
4.8307  18.445  1.04314
5.97623  19.5637  1.57412
7.01945  19.9499  1.92567
5.29367  19.247  1.41857
6.2582  19.8019  1.86841
5.67583  19.5637  1.66878
4.81849  18.8678  1.19055
4.49672  18.445  0.98741
6.1107  19.8019  1.92869
5.33184  19.5637  1.73295
4.27301  18.445  0.916918
6.42801  19.9499  2.25554
5.76892  19.8019  2.03639
4.79881  19.247  1.42802
4.46041  18.8678  1.1308
4.17647  18.445  0.877467
6.26061  19.9499  2.32394
5.37755  19.8019  2.1094
4.22056  18.8678  1.05522
5.87269  19.9499  2.44618
4.77266  19.5637  1.74362
4.40191  19.247  1.36179
4.11705  18.8678  1.01293
3.87868  18.445  0.716312
5.4285  19.9499  2.52904
4.13606  19.247  1.27801
4.74134  19.8019  2.12153
4.32417  19.5637  1.66878
4.02133  19.247  1.23113
3.79777  18.8678  0.840144
3.61148  18.445  0.50834
4.02377  19.5637  1.57412
3.46545  18.445  0.359497
4.70643  19.9499  2.54282
4.23108  19.8019  2.03639
3.89412  19.5637  1.52114
3.66745  19.247  1.03962
3.51129  18.8678  0.617167
3.38215  18.445  0.259225
3.8893  19.8019  1.92869
3.35473  18.8678  0.457585
4.12731  19.9499  2.44618
3.7418  19.8019  1.86841
3.49424  19.5637  1.30474
3.34991  19.247  0.792471
3.26542  18.8678  0.350078
3.19695  18.445  -0.0242392
3.73939  19.9499  2.32394
3.17638  19.247  0.61559
3.57199  19.9499  2.25554
3.28683  19.8019  1.6222
3.13543  19.5637  1.02546
3.07739  19.247  0.496429
3.06686  18.8678  0.046162
3.06094  18.445  -0.334319
2.93933  19.5637  0.82559
3.00943  18.445  -0.509368
3.05562  19.9499  1.97609
2.8786  19.8019  1.30446
2.82748  19.5637  0.69094
2.85731  19.247  0.159568
2.92103  18.8678  -0.28629
2.97782  18.445  -0.662557
2.65549  19.8019  1.07705
2.86581  18.8678  -0.473969
2.59229  19.9499  1.61547
2.52823  19.8019  0.923857
2.57879  19.5637  0.310293
2.69567  19.247  -0.208923
2.83192  18.8678  -0.638211
2.33908  19.9499  1.35737
2.63446  19.247  -0.416946
2.19464  19.9499  1.1835
2.24528  19.8019  0.490778
2.39615  19.5637  -0.106096
2.59689  19.247  -0.598992
2.32698  19.5637  -0.341159
1.87351  19.9499  0.691973
2.03748  19.8019  0.0170342
2.28453  19.5637  -0.546868
1.95878  19.8019  -0.250408
1.63766  19.9499  0.154293
1.91049  19.8019  -0.484451
1.54834  19.9499  -0.149243
1.49353  19.9499  -0.414873
29  8  7
47  2  1
47  1  9
48  47  9
49  3  2
49  2  47
50  9  10
50  48  9
51  47  48
51  49  47
52  4  3
52  3  49
53  50  10
54  51  48
54  48  50
55  49  51
55  52  49
56  5  4
56  4  52
57  50  53
57  54  50
58  55  51
58  51  54
58  54  57
59  10  11
59  53  10
60  56  52
60  52  55
61  59  11
62  6  5
62  5  56
63  58  57
64  60  55
64  55  58
65  59  61
65  57  53
65  53  59
66  11  12
66  61  11
67  56  60
67  62  56
68  65  61
68  61  66
69  7  6
69  6  62
69  29  7
70  64  58
70  58  63
71  67  60
71  60  64
72  66  12
73  57  65
73  65  68
73  63  57
74  68  66
75  30  29
75  69  62
75  62  67
75  29  69
76  73  68
77  71  64
77  64  70
78  67  71
78  30  75
78  75  67
79  66  72
79  74  66
80  70  63
80  63  73
80  73  76
81  68  74
81  76  68
82  12  13
82  72  12
83  80  76
84  82  13
85  31  30
85  30  78
85  71  77
85  78  71
86  74  79
86  81  74
87  85  77
87  77  70
87  70  80
87  80  83
88  81  86
88  76  81
88  83  76
89  79  72
89  72  82
90  13  14
90  84  13
91  87  83
92  82  84
92  89  82
93  88  86
94  32  31
94  85  87
94  31  85
95  90  14
96  91  83
96  83  88
96  88  93
97  79  89
97  89  92
97  93  86
97  86  79
98  84  90
98  90  95
98  92  84
99  87  91
99  94  87
99  33  32
99  32  94
100  97  92
101  96  93
102  98  95
103  99  91
103  33  99
103  91  96
104  93  97
105  92  98
105  100  92
105  98  102
106  95  14
106  14  15
106  102  95
107  97  100
107  104  97
108  34  33
108  96  101
108  33  103
108  103  96
109  105  102
110  101  93
110  93  104
111  100  105
111  107  100
111  105  109
112  102  106
113  106  15
113  15  16
114  110  104
114  104  107
115  111  109
116  113  16
117  35  34
117  34  108
117  101  110
117  108  101
117  110  114
118  107  111
118  114  107
119  109  102
119  102  112
120  106  113
120  112  106
121  16  17
121  116  16
122  114  118
122  36  35
122  35  117
122  117  114
123  118  111
123  111  115
124  116  121
124  120  113
124  113  116
125  36  122
125  122  118
126  115  109
126  109  119
127  119  112
127  126  119
127  112  120
128  124  121
129  121  17
130  125  118
130  37  36
130  36  125
130  118  123
131  120  124
131  127  120
132  123  115
132  115  126
133  126  127
133  132  126
134  131  124
134  124  128
135  128  121
135  121  129
136  129  17
136  17  18
137  127  131
137  133  127
138  136  18
139  123  132
139  37  130
139  38  37
139  130  123
140  132  133
141  131  134
141  137  131
142  134  128
142  128  135
143  135  129
143  129  136
143  142  135
144  18  19
144  138  18
145  133  137
145  140  133
145  137  141
146  136  138
146  143  136
147  39  38
147  139  132
147  38  139
147  132  140
148  145  141
149  141  134
149  134  142
150  142  143
150  143  146
151  138  144
151  146  138
152  144  19
153  140  145
153  40  39
153  39  147
153  147  140
154  150  146
155  153  145
155  145  148
155  40  153
156  148  141
156  141  149
157  149  142
157  156  149
157  142  150
158  154  146
158  146  151
159  144  152
159  151  144
160  19  20
160  152  19
161  150  154
161  157  150
162  160  20
163  40  155
163  155  148
163  41  40
163  148  156
164  156  157
165  161  154
165  154  158
166  151  159
166  158  151
167  166  159
167  152  160
167  159  152
168  20  21
168  21  22
168  162  20
169  157  161
169  164  157
170  160  162
170  167  160
170  162  168
171  163  156
171  164  169
171  156  164
171  41  163
171  42  41
172  161  165
172  169  161
173  165  158
173  158  166
173  172  165
174  166  167
174  173  166
175  168  22
175  22  23
175  170  168
176  171  169
176  43  42
176  42  171
177  167  170
177  174  167
177  170  175
178  176  169
178  43  176
178  169  172
179  172  173
180  173  174
181  23  24
181  177  175
181  175  23
182  174  177
182  180  174
183  44  43
183  43  178
183  178  172
183  172  179
184  173  180
184  179  173
185  24  25
185  181  24
185  177  181
185  182  177
186  184  180
186  180  182
187  179  184
187  45  44
187  44  183
187  183  179
188  182  185
188  25  26
188  26  27
188  185  25
188  186  182
189  184  186
189  187  184
189  45  187
189  46  45
190  189  186
190  186  188
190  46  189
190  27  28
190  28  46
190  188  27
VARIABLES = X Y Z
ZONE N =84, E =82, DATAPACKING = POINT, ZONETYPE = FETRIANGLE
0  0  5
50  0  5
50  0.763246  4.9414
50  1.5086  4.76698
50  2.2186  4.48083
50  2.87659  4.08965
50  3.46716  3.60261
50  3.97646  3.03113
50  4.39256  2.3886
50  4.7057  1.69008
50  4.90854  0.951956
50  4.99633  0.191514
50  4.96701  -0.573417
50  4.82127  -1.32491
50  4.56252  -2.04534
50  4.19683  -2.71784
50  3.73277  -3.32663
50  3.18121  -3.85745
50  2.55509  -4.29785
50  1.86909  -4.63751
50  1.13927  -4.86848
50  0.382746  -4.98533
50  -0.382746  -4.98533
50  -1.13927  -4.86848
50  -1.86909  -4.63751
50  -2.55509  -4.29785
50  -3.18121  -3.85745
50  -3.73277  -3.32663
50  -4.19683  -2.71784
50  -4.56252  -2.04534
50  -4.82127  -1.32491
50  -4.96701  -0.573417
50  -4.99633  0.191514
50  -4.90854  0.951956
50  -4.7057  1.69008
50  -4.39256  2.3886
50  -3.97646  3.03113
50  -3.46716  3.60261
50  -2.87659  4.08965
50  -2.2186  4.48083
50  -1.5086  4.76698
50  -0.763246  4.9414
50  0  5
0  0  5
0  0.763246  4.9414
0  1.5086  4.76698
0  2.2186  4.48083
0  2.87659  4.08965
0  3.46716  3.60261
0  3.97646  3.03113
0  4.39256  2.3886
0  4.7057  1.69008
0  4.90854  0.951956
0  4.99633  0.191514
0  4.96701  -0.573417
0  4.82127  -1.32491
0  4.56252  -2.04534
0  4.19683  -2.71784
0  3.73277  -3.32663
0  3.18121  -3.85745
0  2.55509  -4.29785
0  1.86909  -4.63751
0  1.13927  -4.86848
0  0.382746  -4.98533
0  -0.382746  -4.98533
0  -1.13927  -4.86848
0  -1.86909  -4.63751
0  -2.55509  -4.29785
0  -3.18121  -3.85745
0  -3.73277  -3.32663
0  -4.19683  -2.71784
0  -4.56252  -2.04534
0  -4.82127  -1.32491
0  -4.96701  -0.573417
0  -4.99633  0.191514
0  -4.90854  0.951956
0  -4.7057  1.69008
0  -4.39256  2.3886
0  -3.97646  3.03113
0  -3.46716  3.60261
0  -2.87659  4.08965
0  -2.2186  4.48083
0  -1.5086  4.76698
0  -0.763246  4.9414
45  1  2
45  2  3
46  3  4
46  45  3
47  4  5
47  46  4
48  47  5
48  5  6
49  48  6
49  6  7
50  7  8
50  49  7
50  8  9
51  50  9
52  9  10
52  10  11
52  51  9
53  52  11
54  11  12
54  12  13
54  53  11
55  54  13
56  13  14
56  55  13
57  14  15
57  15  16
57  56  14
58  57  16
59  16  17
59  58  16
60  17  18
60  18  19
60  59  17
61  19  20
61  60  19
62  61  20
63  20  21
63  62  20
64  21  22
64  63  21
65  22  23
65  23  24
65  64  22
66  65  24
67  24  25
67  25  26
67  66  24
68  67  26
69  26  27
69  27  28
69  68  26
70  69  28
71  28  29
71  29  30
71  70  28
72  71  30
73  72  30
73  30  31
74  73  31
74  31  32
75  74  32
75  32  33
76  75  33
76  33  34
77  76  34
77  34  35
77  35  36
78  77  36
79  78  36
79  36  37
80  79  37
80  37  38
81  80  38
81  38  39
82  81  39
82  39  40
83  82  40
83  40  41
84  41  42
84  83  41
44  42  43
44  84  42
VARIABLES = X Y Z
ZONE N =41, E =39, DATAPACKING = POINT, ZONETYPE = FETRIANGLE
0  0  5
0  0.763246  4.9414
0  1.5086  4.76698
0  2.2186  4.48083
0  2.87659  4.08965
0  3.46716  3.60261
0  3.97646  3.03113
0  4.39256  2.3886
0  4.7057  1.69008
0  4.90854  0.951956
0  4.99633  0.191514
0  4.96701  -0.573417
0  4.82127  -1.32491
0  4.56252  -2.04534
0  4.19683  -2.71784
0  3.73277  -3.32663
0  3.18121  -3.85745
0  2.55509  -4.29785
0  1.86909  -4.63751
0  1.13927  -4.86848
0  0.382746  -4.98533
0  -0.382746  -4.98533
0  -1.13927  -4.86848
0  -1.86909  -4.63751
0  -2.55509  -4.29785
0  -3.18121  -3.85745
0  -3.73277  -3.32663
0  -4.19683  -2.71784
0  -4.56252  -2.04534
0  -4.82127  -1.32491
0  -4.96701  -0.573417
0  -4.99633  0.191514
0  -4.90854  0.951956
0  -4.7057  1.69008
0  -4.39256  2.3886
0  -3.97646  3.03113
0  -3.46716  3.60261
0  -2.87659  4.08965
0  -2.2186  4.48083
0  -1.5086  4.76698
0  -0.763246  4.9414
5  6  7
10  7  8
10  8  9
10  5  7
41  1  2
41  2  3
41  3  4
41  4  5
13  11  12
14  11  13
39  40  41
15  11  14
16  10  11
16  11  15
36  37  38
18  16  17
34  35  36
34  36  38
20  18  19
33  38  39
33  39  41
33  34  38
32  5  10
32  41  5
32  33  41
24  21  22
24  22  23
29  21  24
29  20  21
29  30  31
29  31  32
29  10  16
29  16  18
29  32  10
29  18  20
27  29  24
27  24  25
27  25  26
27  28  29
VARIABLES = X Y Z
ZONE N =41, E =39, DATAPACKING = POINT, ZONETYPE = FETRIANGLE
0  0  5
0  0.763246  4.9414
0  1.5086  4.76698
0  2.2186  4.48083
0  2.87659  4.08965
0  3.46716  3.60261
0  3.97646  3.03113
0  4.39256  2.3886
0  4.7057  1.69008
0  4.90854  0.951956
0  4.99633  0.191514
0  4.96701  -0.573417
0  4.82127  -1.32491
0  4.56252  -2.04534
0  4.19683  -2.71784
0  3.73277  -3.32663
0  3.18121  -3.85745
0  2.55509  -4.29785
0  1.86909  -4.63751
0  1.13927  -4.86848
0  0.382746  -4.98533
0  -0.382746  -4.98533
0  -1.13927  -4.86848
0  -1.86909  -4.63751
0  -2.55509  -4.29785
0  -3.18121  -3.85745
0  -3.73277  -3.32663
0  -4.19683  -2.71784
0  -4.56252  -2.04534
0  -4.82127  -1.32491
0  -4.96701  -0.573417
0  -4.99633  0.191514
0  -4.90854  0.951956
0  -4.7057  1.69008
0  -4.39256  2.3886
0  -3.97646  3.03113
0  -3.46716  3.60261
0  -2.87659  4.08965
0  -2.2186  4.48083
0  -1.5086  4.76698
0  -0.763246  4.9414
5  6  7
10  7  8
10  8  9
10  5  7
41  1  2
41  2  3
41  3  4
41  4  5
13  11  12
14  11  13
39  40  41
15  11  14
16  10  11
16  11  15
36  37  38
18  16  17
34  35  36
34  36  38
20  18  19
33  38  39
33  39  41
33  34  38
32  5  10
32  41  5
32  33  41
24  21  22
24  22  23
29  21  24
29  20  21
29  30  31
29  31  32
29  10  16
29  16  18
29  32  10
29  18  20
27  29  24
27  24  25
27  25  26
27  28  29
VARIABLES = X Y Z
ZONE N =5461, E =10892, DATAPACKING = POINT, ZONETYPE = FETRIANGLE
0  0  0
0  0  0
0  0  0
-9.06421e-32  -3.33333  -8.16431e-16
-1.20856e-31  -4.44444  -1.08857e-15
-1.32186e-31  -4.86111  -1.19063e-15
-1.34311e-31  -4.93924  -1.20976e-15
-1.35801e-31  -4.99402  -1.22318e-15
-0.00110247  -4.99921  -1.22445e-15
-4.91884  -1.48655  -3.64099e-16
-6.02626  -0.69553  -1.70356e-16
-6.85683  -0.102268  -2.50484e-17
-6.99892  1.90319e-31  0
-6.98215  1.89863e-31  0
-3.57159  9.71208e-32  0
0  0  0
-9.06421e-32  -3.33333  -8.16431e-16
-1.20856e-31  -4.44444  -1.08857e-15
-1.32186e-31  -4.86111  -1.19063e-15
-1.34311e-31  -4.93924  -1.20976e-15
-1.35801e-31  -4.99402  -1.22318e-15
-0.00110247  -4.99921  -1.22445e-15
-4.91884  -1.48655  -3.64099e-16
-6.02626  -0.69553  -1.70356e-16
-6.85683  -0.102268  -2.50484e-17
-6.99892  1.90319e-31  0
-6.98215  1.89863e-31  0
-3.57159  9.71208e-32  0
-6.85683  -0.100303  0.0199515
-6.99892  -1.51592e-16  1.49305e-17
-6.99892  -2.97359e-16  5.91483e-17
-6.85683  -0.0944831  0.0391362
-6.99892  -4.31698e-16  1.30954e-16
-6.85683  -0.0850326  0.0568169
-6.99892  -5.49447e-16  2.27589e-16
-6.85683  -0.0723143  0.0723143
-6.85683  -0.0568169  0.0850326
-6.99892  -6.46082e-16  3.45338e-16
-6.99892  -7.17887e-16  4.79677e-16
-6.85683  -0.0391362  0.0944831
-6.85683  -0.0199515  0.100303
-6.99892  -7.62105e-16  6.25444e-16
-6.99892  -7.77036e-16  7.77036e-16
-6.85683  -7.72615e-16  0.102268
-6.85683  0.0199515  0.100303
-6.99892  -7.62105e-16  9.28628e-16
-6.99892  -7.17887e-16  1.07439e-15
-6.85683  0.0391362  0.0944831
-6.85683  0.0568169  0.0850326
-6.99892  -6.46082e-16  1.20873e-15
-6.99892  -5.49447e-16  1.32648e-15
-6.85683  0.0723143  0.0723143
-6.99892  -4.31698e-16  1.42312e-15
-6.85683  0.0850326  0.0568169
-6.85683  0.0944831  0.0391362
-6.99892  -2.97359e-16  1.49492e-15
-6.99892  -1.51592e-16  1.53914e-15
-6.85683  0.100303  0.0199515
-6.99892  -9.51594e-32  1.55407e-15
-6.85683  0.102268  1.53505e-15
-6.99892  1.51592e-16  1.53914e-15
-6.85683  0.100303  -0.0199515
-6.99892  2.97359e-16  1.49492e-15
-6.85683  0.0944831  -0.0391362
-6.85683  0.0850326  -0.0568169
-6.99892  4.31698e-16  1.42312e-15
-6.99892  5.49447e-16  1.32648e-15
-6.85683  0.0723143  -0.0723143
-6.99892  6.46082e-16  1.20873e-15
-6.85683  0.0568169  -0.0850326
-6.99892  7.17887e-16  1.07439e-15
-6.85683  0.0391362  -0.0944831
-6.99892  7.62105e-16  9.28628e-16
-6.85683  0.0199515  -0.100303
-6.85683  7.83969e-16  -0.102268
-6.99892  7.77036e-16  7.77036e-16
-6.99892  7.62105e-16  6.25444e-16
-6.85683  -0.0199515  -0.100303
-6.99892  7.17887e-16  4.79677e-16
-6.85683  -0.0391362  -0.0944831
-6.99892  6.46082e-16  3.45338e-16
-6.85683  -0.0568169  -0.0850326
-6.85683  -0.0723143  -0.0723143
-6.99892  5.49447e-16  2.27589e-16
-6.99892  4.31698e-16  1.30954e-16
-6.85683  -0.0850326  -0.0568169
-6.99892  2.97359e-16  5.91483e-17
-6.85683  -0.0944831  -0.0391362
-6.99892  1.51592e-16  1.49305e-17
-6.85683  -0.100303  -0.0199515
4.23192e-17  -3.87016  0.381178
1.00776e-16  -4.56338  0.907712
9.62639e-17  -4.35905  0.867068
1.88828e-16  -4.10613  1.70082
2.4555e-16  -4.13783  2.21172
2.74136e-16  -3.69542  2.4692
1.06135e-16  -4.80602  0.955976
1.06981e-16  -4.84433  0.963597
5.43822e-17  -4.97334  0.489831
3.30455e-16  -3.62684  2.97647
3.48909e-16  -3.1427  3.1427
4.0266e-16  -2.97647  3.62684
4.10274e-16  -2.4692  3.69542
3.87753e-16  -3.49257  3.49257
4.55949e-16  -2.74409  4.10682
4.59392e-16  -2.21172  4.13783
5.06624e-16  -1.89016  4.56326
4.55872e-16  -1.70082  4.10613
4.98469e-16  -1.36197  4.48981
4.83951e-16  -0.867068  4.35905
5.37829e-16  -0.963597  4.84433
5.18391e-16  -0.459881  4.66925
5.48365e-16  -5.48365e-16  4.93924
4.93432e-16  -4.93432e-16  4.44444
5.18391e-16  0.459881  4.66925
5.37829e-16  0.963597  4.84433
4.83951e-16  0.867068  4.35905
4.98469e-16  1.36197  4.48981
5.06624e-16  1.89016  4.56326
4.55872e-16  1.70082  4.10613
4.59392e-16  2.21172  4.13783
4.10274e-16  2.4692  3.69542
4.55949e-16  2.74409  4.10682
4.0266e-16  2.97647  3.62684
3.48909e-16  3.1427  3.1427
3.87753e-16  3.49257  3.49257
3.30455e-16  3.62684  2.97647
2.74136e-16  3.69542  2.4692
3.04655e-16  4.10682  2.74409
2.4555e-16  4.13783  2.21172
1.88828e-16  4.10613  1.70082
2.0985e-16  4.56326  1.89016
1.51209e-16  4.48981  1.36197
9.62639e-17  4.35905  0.867068
1.06981e-16  4.84433  0.963597
5.1057e-17  4.66925  0.459881
6.71554e-32  4.93924  6.04882e-16
6.0428e-32  4.44444  5.44287e-16
-5.1057e-17  4.66925  -0.459881
-1.06981e-16  4.84433  -0.963597
-9.62639e-17  4.35905  -0.867068
-1.51209e-16  4.48981  -1.36197
-1.88828e-16  4.10613  -1.70082
-2.0985e-16  4.56326  -1.89016
-2.4555e-16  4.13783  -2.21172
-3.04655e-16  4.10682  -2.74409
-2.74136e-16  3.69542  -2.4692
-3.30455e-16  3.62684  -2.97647
-3.87753e-16  3.49257  -3.49257
-3.48909e-16  3.1427  -3.1427
-4.0266e-16  2.97647  -3.62684
-4.10274e-16  2.4692  -3.69542
-4.55949e-16  2.74409  -4.10682
-4.59392e-16  2.21172  -4.13783
-4.55872e-16  1.70082  -4.10613
-5.06624e-16  1.89016  -4.56326
-4.98469e-16  1.36197  -4.48981
-5.37829e-16  0.963597  -4.84433
-4.83951e-16  0.867068  -4.35905
-5.18391e-16  0.459881  -4.66925
-4.93432e-16  9.86865e-16  -4.44444
-5.48365e-16  1.09673e-15  -4.93924
-5.18391e-16  -0.459881  -4.66925
-4.83951e-16  -0.867068  -4.35905
-5.37829e-16  -0.963597  -4.84433
-4.23192e-17  -3.87016  -0.381178
-4.98469e-16  -1.36197  -4.48981
-4.55872e-16  -1.70082  -4.10613
-5.06624e-16  -1.89016  -4.56326
-4.59392e-16  -2.21172  -4.13783
-4.10274e-16  -2.4692  -3.69542
-4.55949e-16  -2.74409  -4.10682
-4.0266e-16  -2.97647  -3.62684
-3.87753e-16  -3.49257  -3.49257
-3.48909e-16  -3.1427  -3.1427
-3.30455e-16  -3.62684  -2.97647
-2.74136e-16  -3.69542  -2.4692
-2.4555e-16  -4.13783  -2.21172
-1.88828e-16  -4.10613  -1.70082
-1.00776e-16  -4.56338  -0.907712
-9.62639e-17  -4.35905  -0.867068
-1.06135e-16  -4.80602  -0.955976
-1.06981e-16  -4.84433  -0.963597
-5.43822e-17  -4.97334  -0.489831
-5.47255  -1.08578  0.10694
-4.91884  -1.45798  0.290011
-5.47255  -1.07007  0.212851
-5.47255  -1.04406  0.316711
-4.91884  -1.37339  0.568876
-6.44154  -0.391234  0.0778213
-6.57997  -0.269081  0.132696
-6.44154  -0.381722  0.115794
-6.44154  -0.368534  0.152652
-6.44154  -0.351797  0.18804
-6.57997  -0.249459  0.166683
-5.47255  -1.04406  -0.316711
-4.91884  -1.37339  -0.568876
-4.91884  -1.45798  -0.290011
-5.47255  -1.07007  -0.212851
-5.47255  -1.08578  -0.10694
-6.57997  -0.249459  -0.166683
-6.57997  -0.269081  -0.132696
-6.44154  -0.351797  -0.18804
-6.44154  -0.368534  -0.152652
-6.44154  -0.381722  -0.115794
-6.44154  -0.391234  -0.0778213
3.92964e-17  -3.59372  0.353951
5.88263e-17  -3.57203  0.52986
8.42309e-17  -3.81416  0.758685
7.82144e-17  -3.54172  0.704493
9.74141e-17  -3.50289  0.877428
1.25331e-16  -3.72143  1.12888
1.16379e-16  -3.45562  1.04825
1.35064e-16  -3.40002  1.21655
1.65225e-16  -3.59286  1.48821
1.53423e-16  -3.33623  1.38191
1.71413e-16  -3.26441  1.54395
2.03527e-16  -3.42969  1.83321
1.88989e-16  -3.18472  1.70227
2.06111e-16  -3.09735  1.85648
2.39869e-16  -3.23349  2.16055
2.22736e-16  -3.00253  2.00623
2.38824e-16  -2.90047  2.15114
2.73901e-16  -3.00615  2.46708
2.54337e-16  -2.79143  2.29086
2.69237e-16  -2.67566  2.42507
1.74755e-16  -4.39918  1.57405
1.79382e-16  -4.51565  1.61573
2.0985e-16  -4.56326  1.89016
4.42674e-16  1.20952  3.98725
4.2738e-16  1.59451  3.8495
4.07971e-16  1.96415  3.67467
3.84632e-16  2.31488  3.46446
3.57589e-16  2.64331  3.22088
3.27103e-16  2.94628  2.94628
-3.57589e-16  2.64331  -3.22088
-3.27103e-16  2.94628  -2.94628
-3.84632e-16  2.31488  -3.46446
-4.07971e-16  1.96415  -3.67467
-4.2738e-16  1.59451  -3.8495
-4.42674e-16  1.20952  -3.98725
-2.54337e-16  -2.79143  -2.29086
-2.73901e-16  -3.00615  -2.46708
-2.69237e-16  -2.67566  -2.42507
-2.38824e-16  -2.90047  -2.15114
-2.39869e-16  -3.23349  -2.16055
-2.22736e-16  -3.00253  -2.00623
-2.06111e-16  -3.09735  -1.85648
-2.03527e-16  -3.42969  -1.83321
-1.88989e-16  -3.18472  -1.70227
-1.71413e-16  -3.26441  -1.54395
-1.65225e-16  -3.59286  -1.48821
-1.53423e-16  -3.33623  -1.38191
-1.35064e-16  -3.40002  -1.21655
-1.25331e-16  -3.72143  -1.12888
-1.16379e-16  -3.45562  -1.04825
-9.74141e-17  -3.50289  -0.877428
-8.42309e-17  -3.81416  -0.758685
-7.82144e-17  -3.54172  -0.704493
-5.88263e-17  -3.57203  -0.52986
-3.92964e-17  -3.59372  -0.353951
-1.74755e-16  -4.39918  -1.57405
-1.79382e-16  -4.51565  -1.61573
-2.0985e-16  -4.56326  -1.89016
-5.19569  -1.03517  0.767732
-4.91884  -1.23602  0.82588
-5.47255  -1.00799  0.417522
-5.47255  -0.962209  0.514311
-5.19569  -0.954931  0.865499
-4.91884  -1.05115  1.05115
-5.7494  -0.883615  0.131072
-5.70326  -0.823908  0.423204
-5.98012  -0.689828  0.234165
-5.93397  -0.604097  0.46354
-5.68019  -0.666605  0.666605
-6.2339  -0.5367  0.106756
-6.16469  -0.421897  0.421897
-6.2339  -0.367487  0.405459
-5.19569  -1.03517  -0.767732
-4.91884  -1.05115  -1.05115
-4.91884  -1.23602  -0.82588
-5.19569  -0.954931  -0.865499
-5.47255  -1.00799  -0.417522
-5.47255  -0.962209  -0.514311
-5.68019  -0.666605  -0.666605
-5.70326  -0.823908  -0.423204
-5.93397  -0.604097  -0.46354
-6.2339  -0.367487  -0.405459
-6.16469  -0.421897  -0.421897
-5.7494  -0.883615  -0.131072
-5.98012  -0.689828  -0.234165
-6.2339  -0.5367  -0.106756
4.71886e-17  -3.44611  0.425037
5.65637e-17  -3.43464  0.509481
6.59048e-17  -3.4211  0.593618
7.52062e-17  -3.4055  0.677397
8.44622e-17  -3.38785  0.760768
9.36674e-17  -3.36816  0.843681
1.02816e-16  -3.34644  0.926086
1.11903e-16  -3.32271  1.00793
1.20922e-16  -3.29697  1.08917
1.29869e-16  -3.26925  1.16976
1.38737e-16  -3.23956  1.24964
1.47522e-16  -3.20792  1.32876
3.34402e-16  -2.23387  3.01203
3.05296e-16  -2.74986  2.74986
3.3375e-16  -2.46708  3.00615
3.5899e-16  -2.16055  3.23349
2.83489e-16  -2.55344  2.55344
3.46169e-16  -2.08339  3.11801
3.57101e-16  -1.92789  3.21648
3.80773e-16  -1.83321  3.42969
3.67173e-16  -1.76774  3.3072
3.76361e-16  -1.60333  3.38996
3.98888e-16  -1.48821  3.59286
3.84642e-16  -1.43506  3.46455
9.16489e-17  -4.75747  0.8255
4.46635e-16  -0.197634  4.02293
4.29674e-16  -0.381178  3.87016
4.31753e-16  -1.29526e-15  3.88889
4.4502e-16  -0.394791  4.00838
1.3623e-17  -4.99844  0.122705
2.72331e-17  -4.99307  0.245294
4.42333e-16  0.590998  3.98418
4.60365e-16  0.408405  4.1466
4.53704e-16  0.812876  4.08661
4.38581e-16  0.78578  3.95039
2.42977e-16  -4.34788  2.18854
4.33772e-16  0.97867  3.90707
4.72839e-16  -0.631756  4.25895
4.27918e-16  1.1692  3.85434
4.21033e-16  1.35692  3.79233
4.77437e-16  -0.211264  4.30037
4.13134e-16  1.54136  3.72118
-0.613451  -4.54946  0.335588
-1.22817  -4.10289  0.404099
-1.23054  -4.11608  0.20221
-0.612267  -4.5407  0.44722
-1.2258  -4.07979  0.605179
-0.611083  -4.52919  0.558623
-0.609899  -4.51496  0.66973
-1.22343  -4.04684  0.804966
-0.607531  -4.47831  0.890792
-0.607531  -4.4551  1.00043
-1.22343  -4.00247  1.00257
-0.607531  -4.40065  1.21782
-1.22343  -3.88492  1.39005
-0.607531  -4.26009  1.6433
-1.22343  -3.81204  1.579
-0.607531  -4.21848  1.74735
-0.607531  -4.17433  1.85035
-1.22343  -3.72997  1.76414
-0.607531  -4.07851  2.05295
-1.22343  -3.53909  2.12125
-0.607531  -3.85764  2.44283
-1.22343  -3.43074  2.29235
-0.607531  -3.79653  2.53676
-0.607531  -3.73313  2.62917
-1.22343  -3.31413  2.45793
-0.607531  -3.59963  2.80918
-1.22343  -3.05725  2.77093
-0.607531  -3.30695  3.14848
-1.22343  -2.91761  2.91761
-0.607531  -3.22868  3.22868
2.6557e-16  3.57994  2.39204
-0.607531  -3.14848  3.30695
-1.22343  -2.77093  3.05725
-0.607531  -2.98242  3.45745
-1.22343  -2.45793  3.31413
-0.607531  -2.62917  3.73313
-1.22343  -2.29235  3.43074
-0.607531  -2.53676  3.79653
-0.607531  -2.44283  3.85764
-1.22343  -2.12125  3.53909
-0.607531  -2.2506  3.97286
-1.22343  -1.76414  3.72997
4.5342e-17  4.1466  0.408405
9.02474e-17  4.08661  0.812876
-0.607531  -1.85035  4.17433
-1.22343  -1.579  3.81204
-0.607531  -1.74735  4.21848
-0.607531  -1.6433  4.26009
-1.22343  -1.39005  3.88492
-0.607531  -1.43229  4.33559
-1.22343  -1.00257  4.00247
-4.5342e-17  4.1466  -0.408405
2.44612e-31  3.88889  2.20327e-15
-0.607531  -1.00043  4.4551
-1.22343  -0.804966  4.04684
-9.02474e-17  4.08661  -0.812876
-0.607531  -0.890792  4.47831
-0.607531  -0.78062  4.49883
-1.22343  -0.605428  4.08146
-1.84525  -3.68085  0.0903599
-2.45997  -3.22726  0.317858
-3.6894  -2.36186  0.116031
-0.607531  -0.558933  4.53171
-1.22343  -0.202459  4.12115
-0.607531  -0.112056  4.56467
-1.22343  -1.5101e-15  4.12612
-0.607531  -1.58825e-15  4.56605
-0.607531  0.112056  4.56467
-1.22343  0.202459  4.12115
-0.607531  0.335899  4.55368
-1.22343  0.605428  4.08146
-0.607531  0.78062  4.49883
-1.22343  0.804966  4.04684
-0.607531  0.890792  4.47831
-0.607531  1.00043  4.4551
-1.22343  1.00257  4.00247
-0.607531  1.21782  4.40065
-1.22343  1.39005  3.88492
-0.607531  1.6433  4.26009
-1.22343  1.579  3.81204
-0.607531  1.74735  4.21848
-2.6557e-16  3.57994  -2.39204
-0.607531  1.85035  4.17433
-1.22343  1.76414  3.72997
-0.607531  2.05295  4.07851
-1.22343  2.12125  3.53909
-4.13134e-16  1.54136  -3.72118
-0.607531  2.44283  3.85764
-1.22343  2.29235  3.43074
-0.607531  2.53676  3.79653
-4.21033e-16  1.35692  -3.79233
-0.607531  2.62917  3.73313
-1.22343  2.45793  3.31413
-4.27918e-16  1.1692  -3.85434
-0.607531  2.80918  3.59963
-1.22343  2.77093  3.05725
-4.33772e-16  0.97867  -3.90707
-4.53704e-16  0.812876  -4.08661
-4.38581e-16  0.78578  -3.95039
-0.607531  3.14848  3.30695
-1.22343  2.91761  2.91761
-0.607531  3.22868  3.22868
-4.42333e-16  0.590998  -3.98418
-4.60365e-16  0.408405  -4.1466
-0.607531  3.30695  3.14848
-1.22343  3.05725  2.77093
-0.607531  3.45745  2.98242
-1.22343  3.31413  2.45793
-0.607531  3.73313  2.62917
-1.22343  3.43074  2.29235
-3.76361e-16  -1.60333  -3.38996
-3.80773e-16  -1.83321  -3.42969
-3.98888e-16  -1.48821  -3.59286
-3.84642e-16  -1.43506  -3.46455
-0.607531  3.79653  2.53676
-4.46635e-16  -0.197634  -4.02293
-4.31753e-16  4.31753e-15  -3.88889
-4.29674e-16  -0.381178  -3.87016
-0.607531  3.85764  2.44283
-1.22343  3.53909  2.12125
-3.67173e-16  -1.76774  -3.3072
-4.4502e-16  -0.394791  -4.00838
-0.607531  3.97286  2.2506
-1.22343  3.72997  1.76414
-3.57101e-16  -1.92789  -3.21648
-3.5899e-16  -2.16055  -3.23349
-3.46169e-16  -2.08339  -3.11801
-0.607531  4.17433  1.85035
-1.22343  3.81204  1.579
-3.34402e-16  -2.23387  -3.01203
-2.83489e-16  -2.55344  -2.55344
-3.3375e-16  -2.46708  -3.00615
-3.05296e-16  -2.74986  -2.74986
-0.607531  4.21848  1.74735
-0.607531  4.26009  1.6433
-1.22343  3.88492  1.39005
-0.607531  4.33559  1.43229
-1.22343  4.00247  1.00257
-1.47522e-16  -3.20792  -1.32876
-1.38737e-16  -3.23956  -1.24964