VARIABLES = X Y Z
ZONE N =54, E =52, DATAPACKING = POINT, ZONETYPE = FETRIANGLE
0  0  2
15  0  2
15  0.478631  1.94188
15  0.929446  1.77091
15  1.32625  1.49702
15  1.64597  1.13613
15  1.87003  0.70921
15  1.98542  0.241073
15  1.98542  -0.241073
15  1.87003  -0.70921
15  1.64597  -1.13613
15  1.32625  -1.49702
15  0.929446  -1.77091
15  0.478631  -1.94188
15  2.02129e-15  -2
15  -0.478631  -1.94188
15  -0.929446  -1.77091
15  -1.32625  -1.49702
15  -1.64597  -1.13613
15  -1.87003  -0.70921
15  -1.98542  -0.241073
15  -1.98542  0.241073
15  -1.87003  0.70921
15  -1.64597  1.13613
15  -1.32625  1.49702
15  -0.929446  1.77091
15  -0.478631  1.94188
15  0  2
0  0  2
0  0.478631  1.94188
0  0.929446  1.77091
0  1.32625  1.49702
0  1.64597  1.13613
0  1.87003  0.70921
0  1.98542  0.241073
0  1.98542  -0.241073
0  1.87003  -0.70921
0  1.64597  -1.13613
0  1.32625  -1.49702
0  0.929446  -1.77091
0  0.478631  -1.94188
0  2.02129e-15  -2
0  -0.478631  -1.94188
0  -0.929446  -1.77091
0  -1.32625  -1.49702
0  -1.64597  -1.13613
0  -1.87003  -0.70921
0  -1.98542  -0.241073
0  -1.98542  0.241073
0  -1.87003  0.70921
0  -1.64597  1.13613
0  -1.32625  1.49702
0  -0.929446  1.77091
0  -0.478631  1.94188
30  1  2
30  2  3
31  3  4
31  30  3
32  4  5
32  31  4
33  5  6
33  32  5
34  6  7
34  33  6
35  7  8
35  34  7
36  8  9
36  35  8
37  9  10
37  36  9
38  10  11
38  11  12
38  37  10
39  38  12
40  39  12
40  12  13
41  40  13
41  13  14
41  14  15
42  41  15
43  42  15
43  15  16
44  16  17
44  43  16
45  17  18
45  18  19
45  44  17
46  45  19
47  19  20
47  20  21
47  46  19
48  47  21
49  48  21
49  21  22
50  22  23
50  49  22
51  23  24
51  50  23
52  24  25
52  51  24
53  25  26
53  52  25
54  26  27
54  53  26
29  27  28
29  54  27
VARIABLES = X Y Z
ZONE N =26, E =24, DATAPACKING = POINT, ZONETYPE = FETRIANGLE
0  0  2
0  0.478631  1.94188
0  0.929446  1.77091
0  1.32625  1.49702
0  1.64597  1.13613
0  1.87003  0.70921
0  1.98542  0.241073
0  1.98542  -0.241073
0  1.87003  -0.70921
0  1.64597  -1.13613
0  1.32625  -1.49702
0  0.929446  -1.77091
0  0.478631  -1.94188
0  2.02129e-15  -2
0  -0.478631  -1.94188
0  -0.929446  -1.77091
0  -1.32625  -1.49702
0  -1.64597  -1.13613
0  -1.87003  -0.70921
0  -1.98542  -0.241073
0  -1.98542  0.241073
0  -1.87003  0.70921
0  -1.64597  1.13613
0  -1.32625  1.49702
0  -0.929446  1.77091
0  -0.478631  1.94188
12  9  10
12  10  11
13  2  3
13  3  4
13  4  5
13  5  6
13  6  7
13  7  8
13  8  9
13  9  12
19  20  21
19  21  22
18  22  23
18  19  22
17  1  2
17  13  14
17  14  15
17  15  16
17  23  24
17  24  25
17  25  26
17  26  1
17  2  13
17  18  23
VARIABLES = X Y Z
ZONE N =26, E =24, DATAPACKING = POINT, ZONETYPE = FETRIANGLE
0  0  2
0  0.478631  1.94188
0  0.929446  1.77091
0  1.32625  1.49702
0  1.64597  1.13613
0  1.87003  0.70921
0  1.98542  0.241073
0  1.98542  -0.241073
0  1.87003  -0.70921
0  1.64597  -1.13613
0  1.32625  -1.49702
0  0.929446  -1.77091
0  0.478631  -1.94188
0  2.02129e-15  -2
0  -0.478631  -1.94188
0  -0.929446  -1.77091
0  -1.32625  -1.49702
0  -1.64597  -1.13613
0  -1.87003  -0.70921
0  -1.98542  -0.241073
0  -1.98542  0.241073
0  -1.87003  0.70921
0  -1.64597  1.13613
0  -1.32625  1.49702
0  -0.929446  1.77091
0  -0.478631  1.94188
12  9  10
12  10  11
13  2  3
13  3  4
13  4  5
13  5  6
13  6  7
13  7  8
13  8  9
13  9  12
19  20  21
19  21  22
18  22  23
18  19  22
17  1  2
17  13  14
17  14  15
17  15  16
17  23  24
17  24  25
17  25  26
17  26  1
17  2  13
17  18  23
VARIABLES = X Y Z
ZONE N =26, E =24, DATAPACKING = POINT, ZONETYPE = FETRIANGLE
15  0  2
15  0.478631  1.94188
15  0.929446  1.77091
15  1.32625  1.49702
15  1.64597  1.13613
15  1.87003  0.70921
15  1.98542  0.241073
15  1.98542  -0.241073
15  1.87003  -0.70921
15  1.64597  -1.13613
15  1.32625  -1.49702
15  0.929446  -1.77091
15  0.478631  -1.94188
15  2.02129e-15  -2
15  -0.478631  -1.94188
15  -0.929446  -1.77091
15  -1.32625  -1.49702
15  -1.64597  -1.13613
15  -1.87003  -0.70921
15  -1.98542  -0.241073
15  -1.98542  0.241073
15  -1.87003  0.70921
15  -1.64597  1.13613
15  -1.32625  1.49702
15  -0.929446  1.77091
15  -0.478631  1.94188
12  9  10
12  10  11
13  2  3
13  3  4
13  4  5
13  5  6
13  6  7
13  7  8
13  8  9
13  9  12
19  20  21
19  21  22
18  22  23
18  19  22
17  1  2
17  13  14
17  14  15
17  15  16
17  23  24
17  24  25
17  25  26
17  26  1
17  2  13
17  18  23
VARIABLES = X Y Z
ZONE N =18, E =16, DATAPACKING = POINT, ZONETYPE = FETRIANGLE
4.68294  1.5  0.0806046
4.68294  6.5  0.0806046
4.36328  6.5  0.463378
3.95885  6.5  0.755165
3.49481  6.5  0.937825
3  6.5  1
2.50519  6.5  0.937825
2.04115  6.5  0.755165
1.63672  6.5  0.463378
1.31706  6.5  0.0806046
1.31706  1.5  0.0806046
4.36328  1.5  0.463378
3.95885  1.5  0.755165
3.49481  1.5  0.937825
3  1.5  1
2.50519  1.5  0.937825
2.04115  1.5  0.755165
1.63672  1.5  0.463378
12  1  2
12  2  3
13  3  4
13  12  3
14  4  5
14  13  4
15  5  6
15  14  5
16  6  7
16  15  6
17  7  8
17  16  7
18  8  9
18  17  8
11  9  10
11  18  9
VARIABLES = X Y Z
ZONE N =18, E =16, DATAPACKING = POINT, ZONETYPE = FETRIANGLE
4.68294  1.5  -0.0806046
4.68294  6.5  -0.0806046
4.36328  6.5  -0.463378
3.95885  6.5  -0.755165
3.49481  6.5  -0.937825
3  6.5  -1
2.50519  6.5  -0.937825
2.04115  6.5  -0.755165
1.63672  6.5  -0.463378
1.31706  6.5  -0.0806046
1.31706  1.5  -0.0806046
4.36328  1.5  -0.463378
3.95885  1.5  -0.755165
3.49481  1.5  -0.937825
3  1.5  -1
2.50519  1.5  -0.937825
2.04115  1.5  -0.755165
1.63672  1.5  -0.463378
12  1  2
12  2  3
13  3  4
13  12  3
14  4  5
14  13  4
15  5  6
15  14  5
16  6  7
16  15  6
17  7  8
17  16  7
18  8  9
18  17  8
11  9  10
11  18  9
VARIABLES = X Y Z
ZONE N =9, E =7, DATAPACKING = POINT, ZONETYPE = FETRIANGLE
4.68294  1.5  -0.0806046
4.36328  1.5  -0.463378
3.95885  1.5  -0.755165
3.49481  1.5  -0.937825
3  1.5  -1
2.50519  1.5  -0.937825
2.04115  1.5  -0.755165
1.63672  1.5  -0.463378
1.31706  1.5  -0.0806046
4  5  6
4  6  7
4  7  8
2  3  4
2  8  9
2  9  1
2  4  8
VARIABLES = X Y Z
ZONE N =9, E =7, DATAPACKING = POINT, ZONETYPE = FETRIANGLE
4.68294  1.5  -0.0806046
4.36328  1.5  -0.463378
3.95885  1.5  -0.755165
3.49481  1.5  -0.937825
3  1.5  -1
2.50519  1.5  -0.937825
2.04115  1.5  -0.755165
1.63672  1.5  -0.463378
1.31706  1.5  -0.0806046
4  5  6
4  6  7
4  7  8
2  3  4
2  8  9
2  9  1
2  4  8
VARIABLES = X Y Z
ZONE N =18, E =16, DATAPACKING = POINT, ZONETYPE = FETRIANGLE
4.68294  -6.5  -0.0806046
4.68294  -1.5  -0.0806046
4.36328  -1.5  -0.463378
3.95885  -1.5  -0.755165
3.49481  -1.5  -0.937825
3  -1.5  -1
2.50519  -1.5  -0.937825
2.04115  -1.5  -0.755165
1.63672  -1.5  -0.463378
1.31706  -1.5  -0.0806046
1.31706  -6.5  -0.0806046
4.36328  -6.5  -0.463378
3.95885  -6.5  -0.755165
3.49481  -6.5  -0.937825
3  -6.5  -1
2.50519  -6.5  -0.937825
2.04115  -6.5  -0.755165
1.63672  -6.5  -0.463378
12  1  2
12  2  3
13  3  4
13  12  3
14  4  5
14  13  4
15  5  6
15  14  5
16  6  7
16  15  6
17  7  8
17  16  7
18  8  9
18  17  8
11  9  10
11  18  9
VARIABLES = X Y Z
ZONE N =9, E =7, DATAPACKING = POINT, ZONETYPE = FETRIANGLE
4.68294  -6.5  -0.0806046
4.36328  -6.5  -0.463378
3.95885  -6.5  -0.755165
3.49481  -6.5  -0.937825
3  -6.5  -1
2.50519  -6.5  -0.937825
2.04115  -6.5  -0.755165
1.63672  -6.5  -0.463378
1.31706  -6.5  -0.0806046
4  5  6
4  6  7
4  7  8
2  3  4
2  8  9
2  9  1
2  4  8
VARIABLES = X Y Z
ZONE N =9, E =7, DATAPACKING = POINT, ZONETYPE = FETRIANGLE
4.68294  -6.5  -0.0806046
4.36328  -6.5  -0.463378
3.95885  -6.5  -0.755165
3.49481  -6.5  -0.937825
3  -6.5  -1
2.50519  -6.5  -0.937825
2.04115  -6.5  -0.755165
1.63672  -6.5  -0.463378
1.31706  -6.5  -0.0806046
4  5  6
4  6  7
4  7  8
2  3  4
2  8  9
2  9  1
2  4  8
VARIABLES = X Y Z
ZONE N =18, E =16, DATAPACKING = POINT, ZONETYPE = FETRIANGLE
4.68294  -6.5  0.0806046
4.68294  -1.5  0.0806046
4.36328  -1.5  0.463378
3.95885  -1.5  0.755165
3.49481  -1.5  0.937825
3  -1.5  1
2.50519  -1.5  0.937825
2.04115  -1.5  0.755165
1.63672  -1.5  0.463378
1.31706  -1.5  0.0806046
1.31706  -6.5  0.0806046
4.36328  -6.5  0.463378
3.95885  -6.5  0.755165
3.49481  -6.5  0.937825
3  -6.5  1
2.50519  -6.5  0.937825
2.04115  -6.5  0.755165
1.63672  -6.5  0.463378
12  1  2
12  2  3
13  3  4
13  12  3
14  4  5
14  13  4
15  5  6
15  14  5
16  6  7
16  15  6
17  7  8
17  16  7
18  8  9
18  17  8
11  9  10
11  18  9
