VARIABLES = X Y Z
ZONE N =54, E =52, DATAPACKING = POINT, ZONETYPE = FETRIANGLE
0  0  3
15  0  3
15  0.717947  2.91283
15  1.39417  2.65637
15  1.98937  2.24553
15  2.46895  1.70419
15  2.80505  1.06381
15  2.97813  0.36161
15  2.97813  -0.36161
15  2.80505  -1.06381
15  2.46895  -1.70419
15  1.98937  -2.24553
15  1.39417  -2.65637
15  0.717947  -2.91283
15  3.03193e-15  -3
15  -0.717947  -2.91283
15  -1.39417  -2.65637
15  -1.98937  -2.24553
15  -2.46895  -1.70419
15  -2.80505  -1.06381
15  -2.97813  -0.36161
15  -2.97813  0.36161
15  -2.80505  1.06381
15  -2.46895  1.70419
15  -1.98937  2.24553
15  -1.39417  2.65637
15  -0.717947  2.91283
15  0  3
0  0  3
0  0.717947  2.91283
0  1.39417  2.65637
0  1.98937  2.24553
0  2.46895  1.70419
0  2.80505  1.06381
0  2.97813  0.36161
0  2.97813  -0.36161
0  2.80505  -1.06381
0  2.46895  -1.70419
0  1.98937  -2.24553
0  1.39417  -2.65637
0  0.717947  -2.91283
0  3.03193e-15  -3
0  -0.717947  -2.91283
0  -1.39417  -2.65637
0  -1.98937  -2.24553
0  -2.46895  -1.70419
0  -2.80505  -1.06381
0  -2.97813  -0.36161
0  -2.97813  0.36161
0  -2.80505  1.06381
0  -2.46895  1.70419
0  -1.98937  2.24553
0  -1.39417  2.65637
0  -0.717947  2.91283
30  1  2
30  2  3
31  3  4
31  30  3
32  4  5
32  31  4
33  5  6
33  32  5
34  6  7
34  33  6
35  7  8
35  34  7
36  8  9
36  35  8
37  9  10
37  36  9
38  10  11
38  11  12
38  37  10
39  38  12
40  39  12
40  12  13
41  40  13
41  13  14
41  14  15
42  41  15
43  42  15
43  15  16
44  16  17
44  43  16
45  17  18
45  18  19
45  44  17
46  45  19
47  19  20
47  20  21
47  46  19
48  47  21
49  48  21
49  21  22
50  22  23
50  49  22
51  23  24
51  50  23
52  24  25
52  51  24
53  25  26
53  52  25
54  26  27
54  53  26
29  27  28
29  54  27
VARIABLES = X Y Z
ZONE N =26, E =24, DATAPACKING = POINT, ZONETYPE = FETRIANGLE
0  0  3
0  0.717947  2.91283
0  1.39417  2.65637
0  1.98937  2.24553
0  2.46895  1.70419
0  2.80505  1.06381
0  2.97813  0.36161
0  2.97813  -0.36161
0  2.80505  -1.06381
0  2.46895  -1.70419
0  1.98937  -2.24553
0  1.39417  -2.65637
0  0.717947  -2.91283
0  3.03193e-15  -3
0  -0.717947  -2.91283
0  -1.39417  -2.65637
0  -1.98937  -2.24553
0  -2.46895  -1.70419
0  -2.80505  -1.06381
0  -2.97813  -0.36161
0  -2.97813  0.36161
0  -2.80505  1.06381
0  -2.46895  1.70419
0  -1.98937  2.24553
0  -1.39417  2.65637
0  -0.717947  2.91283
6  4  5
26  1  2
9  7  8
23  2  3
23  3  4
23  24  25
23  25  26
23  4  6
23  26  2
12  9  10
12  10  11
13  9  12
21  22  23
20  6  7
20  23  6
20  7  9
20  21  23
16  14  15
18  19  20
17  13  14
17  9  13
17  20  9
17  14  16
17  18  20
VARIABLES = X Y Z
ZONE N =26, E =24, DATAPACKING = POINT, ZONETYPE = FETRIANGLE
0  0  3
0  0.717947  2.91283
0  1.39417  2.65637
0  1.98937  2.24553
0  2.46895  1.70419
0  2.80505  1.06381
0  2.97813  0.36161
0  2.97813  -0.36161
0  2.80505  -1.06381
0  2.46895  -1.70419
0  1.98937  -2.24553
0  1.39417  -2.65637
0  0.717947  -2.91283
0  3.03193e-15  -3
0  -0.717947  -2.91283
0  -1.39417  -2.65637
0  -1.98937  -2.24553
0  -2.46895  -1.70419
0  -2.80505  -1.06381
0  -2.97813  -0.36161
0  -2.97813  0.36161
0  -2.80505  1.06381
0  -2.46895  1.70419
0  -1.98937  2.24553
0  -1.39417  2.65637
0  -0.717947  2.91283
6  4  5
26  1  2
9  7  8
23  2  3
23  3  4
23  24  25
23  25  26
23  4  6
23  26  2
12  9  10
12  10  11
13  9  12
21  22  23
20  6  7
20  23  6
20  7  9
20  21  23
16  14  15
18  19  20
17  13  14
17  9  13
17  20  9
17  14  16
17  18  20
VARIABLES = X Y Z
ZONE N =1558, E =3094, DATAPACKING = POINT, ZONETYPE = FETRIANGLE
0  0  0
0  0  0
0  0  0
-5.43852e-32  -2  -4.89859e-16
-7.25137e-32  -2.66667  -6.53145e-16
-8.15529e-32  -2.99908  -7.34563e-16
-2.43056  -1.95833  -4.79653e-16
-5.93056  -0.458333  -1.12259e-16
-6.58681  -0.177083  -4.33729e-17
-6.99993  -3.05368e-05  -7.47936e-21
-3.7066  1.00792e-31  0
0  0  0
-5.43852e-32  -2  -4.89859e-16
-7.25137e-32  -2.66667  -6.53145e-16
-8.15529e-32  -2.99908  -7.34563e-16
-2.43056  -1.95833  -4.79653e-16
-5.93056  -0.458333  -1.12259e-16
-6.58681  -0.177083  -4.33729e-17
-6.99993  -3.05368e-05  -7.47936e-21
-3.7066  1.00792e-31  0
-6.99993  -2.82123e-05  1.16859e-05
-6.58681  -0.163604  0.0677669
-6.99993  -2.15928e-05  2.15928e-05
-6.58681  -0.125217  0.125217
-6.99993  -1.16859e-05  2.82123e-05
-6.58681  -0.0677669  0.163604
-6.99993  -7.77152e-16  3.05368e-05
-6.58681  -7.50943e-16  0.177083
-6.99993  1.16859e-05  2.82123e-05
-6.58681  0.0677669  0.163604
-6.99993  2.15928e-05  2.15928e-05
-6.58681  0.125217  0.125217
-6.99993  2.82123e-05  1.16859e-05
-6.58681  0.163604  0.0677669
-6.99993  3.05368e-05  1.5543e-15
-6.58681  0.177083  1.48425e-15
-6.99993  2.82123e-05  -1.16859e-05
-6.58681  0.163604  -0.0677669
-6.58681  0.125217  -0.125217
-6.99993  2.15928e-05  -2.15928e-05
-6.99993  1.16859e-05  -2.82123e-05
-6.58681  0.0677669  -0.163604
-6.99993  7.77155e-16  -3.05368e-05
-6.58681  7.70603e-16  -0.177083
-6.99993  -1.16859e-05  -2.82123e-05
-6.58681  -0.0677669  -0.163604
-6.99993  -2.15928e-05  -2.15928e-05
-6.58681  -0.125217  -0.125217
-3.7066  -1.5748e-16  3.13247e-17
-6.99993  -2.82123e-05  -1.16859e-05
-6.58681  -0.163604  -0.0677669
-3.7066  -2.90985e-16  1.2053e-16
-3.7066  -3.8019e-16  2.54035e-16
-3.7066  -4.11515e-16  4.11515e-16
-3.7066  -3.8019e-16  5.68995e-16
-3.7066  -2.90985e-16  7.025e-16
-3.7066  -1.5748e-16  7.91705e-16
-3.7066  -5.0396e-32  8.2303e-16
-3.7066  1.5748e-16  7.91705e-16
-3.7066  2.90985e-16  7.025e-16
-3.7066  3.8019e-16  5.68995e-16
-3.7066  4.11515e-16  4.11515e-16
-3.7066  3.8019e-16  2.54035e-16
-3.7066  2.90985e-16  1.2053e-16
-3.7066  1.5748e-16  3.13247e-17
9.91349e-17  -2.15572  0.892928
1.13297e-16  -2.46368  1.02049
-1.21421  -2.43198  0.483751
-2.43056  -1.80926  0.749422
-1.21421  -2.29088  0.948912
-1.21421  -2.06173  1.37761
-2.43056  -1.38475  1.38475
-1.21421  -1.75336  1.75336
-1.21421  -1.37761  2.06173
-2.43056  -0.749422  1.80926
-1.21421  -0.948912  2.29088
-1.21421  -0.483751  2.43198
-2.43056  -4.87265e-16  1.95833
-9.91349e-17  -2.15572  -0.892928
-1.13297e-16  -2.46368  -1.02049
-1.21421  -4.10098e-16  2.47963
-1.21421  0.483751  2.43198
-2.43056  0.749422  1.80926
-1.21421  0.948912  2.29088
-1.21421  1.37761  2.06173
-2.43056  1.38475  1.38475
-1.21421  1.75336  1.75336
-1.21421  2.06173  1.37761
-2.43056  1.80926  0.749422
-1.21421  2.29088  0.948912
-1.21421  2.43198  0.483751
-2.43056  1.95833  7.79518e-16
-1.21421  2.47963  5.73274e-16
-1.21421  2.43198  -0.483751
-2.43056  1.80926  -0.749422
-1.21421  2.29088  -0.948912
-1.21421  2.06173  -1.37761
-2.43056  1.38475  -1.38475
-1.21421  1.75336  -1.75336
-1.21421  1.37761  -2.06173
-2.43056  0.749422  -1.80926
-1.21421  0.948912  -2.29088
-1.21421  0.483751  -2.43198
-2.43056  7.04683e-16  -1.95833
-1.21421  6.85392e-16  -2.47963
-1.21421  -0.483751  -2.43198
-2.43056  -0.749422  -1.80926
-4.18056  -1.18512  0.235734
-1.21421  -0.948912  -2.29088
-1.21421  -1.37761  -2.06173
-2.43056  -1.38475  -1.38475
-1.21421  -1.75336  -1.75336
-1.21421  -2.06173  -1.37761
-2.43056  -1.80926  -0.749422
-1.21421  -2.29088  -0.948912
-1.21421  -2.43198  -0.483751
-6.25868  -0.264165  0.176509
-6.25868  -0.224654  0.224654
-6.25868  -0.176509  0.264165
-6.36806  -0.103643  0.250217
-6.25868  -0.121582  0.293524
-6.36806  -0.0353508  0.268516
-4.18056  -1.18512  -0.235734
-6.36806  -0.0353508  -0.268516
-6.36806  -0.103643  -0.250217
-6.25868  -0.121582  -0.293524
-6.25868  -0.176509  -0.264165
-6.25868  -0.224654  -0.224654
-6.25868  -0.264165  -0.176509
6.98275e-17  -2.07337  0.62895
9.20539e-17  -2.00174  0.829147
1.13394e-16  -1.91083  1.02136
1.43922e-16  -1.9401  1.29633
1.33641e-16  -1.80152  1.20374
1.52602e-16  -1.67486  1.37452
1.83177e-16  -1.64992  1.64992
1.70093e-16  -1.53206  1.53206
2.30779e-16  1.38893  2.07867
2.73523e-16  1.02049  2.46368
2.56428e-16  0.956709  2.3097
2.09346e-16  1.88562  1.88562
1.96262e-16  1.76777  1.76777
-0.606031  -2.72708  0.268594
-0.606031  -2.62228  0.795459
-0.606031  -2.53168  1.04866
-0.606031  -2.4167  1.29176
-0.606031  -2.11826  1.73841
-0.606031  -1.93767  1.93767
-0.606031  -1.73841  2.11826
-0.606031  -1.29176  2.4167
-0.606031  -1.04866  2.53168
-0.606031  -0.795459  2.62228
-2.30779e-16  1.38893  -2.07867
-2.09346e-16  1.88562  -1.88562
-1.96262e-16  1.76777  -1.76777
-2.73523e-16  1.02049  -2.46368
-0.606031  -0.268594  2.72708
-2.56428e-16  0.956709  -2.3097
-1.52602e-16  -1.67486  -1.37452
-1.43922e-16  -1.9401  -1.29633
-1.83177e-16  -1.64992  -1.64992
-1.70093e-16  -1.53206  -1.53206
-0.606031  -3.71514e-16  2.74027
-1.33641e-16  -1.80152  -1.20374
-0.606031  0.268594  2.72708
-1.13394e-16  -1.91083  -1.02136
-9.20539e-17  -2.00174  -0.829147
-0.606031  0.795459  2.62228
-6.98275e-17  -2.07337  -0.62895
-0.606031  1.04866  2.53168
-0.606031  1.29176  2.4167
-0.606031  1.73841  2.11826
-0.606031  1.93767  1.93767
-0.606031  2.11826  1.73841
-0.606031  2.4167  1.29176
-0.606031  2.53168  1.04866
-0.606031  2.62228  0.795459
-0.606031  2.72708  0.268594
-0.606031  2.74027  4.70153e-16
-0.606031  2.72708  -0.268594
-0.606031  2.62228  -0.795459
-0.606031  2.53168  -1.04866
-0.606031  2.4167  -1.29176
-0.606031  2.11826  -1.73841
-0.606031  1.93767  -1.93767
-0.606031  1.73841  -2.11826
-0.606031  1.29176  -2.4167
-0.606031  1.04866  -2.53168
-0.606031  0.795459  -2.62228
-0.606031  0.268594  -2.72708
-0.606031  6.75746e-16  -2.74027
-0.606031  -0.268594  -2.72708
-0.606031  -0.795459  -2.62228
-0.606031  -1.04866  -2.53168
-0.606031  -1.29176  -2.4167
-0.606031  -1.73841  -2.11826
-0.606031  -1.93767  -1.93767
-0.606031  -2.11826  -1.73841
-0.606031  -2.4167  -1.29176
-0.606031  -2.53168  -1.04866
-0.606031  -2.62228  -0.795459
-0.606031  -2.72708  -0.268594
-4.5816  -0.657522  0.801193
-4.18056  -0.854421  0.854421
-4.18056  -0.671314  1.00469
-4.18056  -1.11635  0.462409
-4.18056  -1.00469  0.671314
-4.5816  -0.575825  0.861784
-4.5816  -0.488583  0.914075
-4.18056  -0.462409  1.11635
-4.5816  -0.396635  0.957563
-5.03125  -0.701552  0.468762
-4.34462  0.33035  1.08902
-4.55729  0.204235  1.02676
-4.98264  -6.49172e-16  0.864583
-5.4566  -0.467722  0.467722
-4.74566  0.455438  0.852065
-4.74566  0.612916  0.746841
-4.50868  0.887767  0.593187
-4.50868  1.04719  0.2083
-5.72396  -0.36058  0.411162
-5.35937  0.584627  0.390635
-4.74566  0.612916  -0.746841
-4.50868  1.04719  -0.2083
-4.50868  0.887767  -0.593187
-4.34462  0.33035  -1.08902
-4.74566  0.455438  -0.852065
-4.55729  0.204235  -1.02676
-4.98264  7.4516e-16  -0.864583
-6.05208  0.247309  0.3223
-5.78472  0.199314  0.481187
-5.78472  0.289359  0.433057
-5.78472  0.368285  0.368285
-6.05208  0.3223  0.247309
-5.35938  0.584627  -0.390635
-4.5816  -0.396635  -0.957563
-4.18056  -0.462409  -1.11635
-4.5816  -0.488583  -0.914075
-4.18056  -0.671314  -1.00469
-4.5816  -0.575825  -0.861784
-4.5816  -0.657522  -0.801193
-4.18056  -1.11635  -0.462409
-4.18056  -1.00469  -0.671314
-4.18056  -0.854421  -0.854421
-6.05208  0.3223  -0.247309
-6.05208  0.247309  -0.3223
-5.78472  0.368285  -0.368285
-5.78472  0.289359  -0.433057
-5.78472  0.199314  -0.481187
-5.03125  -0.701552  -0.468762
-5.4566  -0.467722  -0.467722
-5.72396  -0.36058  -0.411162
7.79214e-17  -1.96155  0.701854
8.85133e-17  -1.92475  0.797257
2.30785e-16  -0.861038  2.07873
2.15394e-16  -1.29633  1.9401
2.39333e-16  -0.892928  2.15572
2.54074e-16  -0.455211  2.2885
2.1369e-16  -0.797257  1.92475
2.59052e-16  -2.59052e-16  2.33333
2.40548e-16  -2.40548e-16  2.16667
2.30785e-16  0.861038  2.07873
2.67012e-16  0.236875  2.40503
2.56751e-16  0.701521  2.31261
2.86808e-16  -2.86808e-16  2.58333
2.96059e-16  -2.96059e-16  2.66667
2.73523e-16  -1.02049  2.46368
-0.301944  -2.86714  0.140853
1.02675e-16  2.23271  0.924818
9.55944e-17  2.07873  0.861038
3.17247e-32  2.33333  2.85751e-16
-0.301944  -2.83953  0.421204
-0.301944  -2.70279  0.967075
-0.301944  -2.65208  1.09853
-0.301944  -2.59499  1.22734
-0.301944  -2.46219  1.47578
1.09757e-16  2.38669  0.988599
1.13297e-16  2.46368  1.02049
3.62568e-32  2.66667  3.26572e-16
-0.301944  -2.12697  1.92777
-0.301944  -2.02982  2.02982
-0.301944  -1.92777  2.12697
-0.301944  -1.71001  2.30568
-1.83177e-16  1.64992  -1.64992
-1.02675e-16  2.23271  -0.924818
-2.30785e-16  0.861038  -2.07873
-1.70093e-16  1.53206  -1.53206
-2.1369e-16  0.797257  -1.92475
-0.301944  -1.22734  2.59499
-0.301944  -1.09853  2.65208
-0.301944  -0.967075  2.70279
-0.301944  -0.697498  2.78457
-1.09757e-16  2.38669  -0.988599
-1.13297e-16  2.46368  -1.02049
-0.301944  -0.140853  2.86714
-0.301944  -3.52223e-16  2.8706
-0.301944  0.140853  2.86714
-2.4788e-16  0.924818  -2.23271
-2.56751e-16  0.701521  -2.31261
-2.59052e-16  5.18104e-16  -2.33333
-0.301944  0.697498  2.78457
-2.30785e-16  -0.861038  -2.07873
-2.39333e-16  -0.892928  -2.15572
-2.54074e-16  -0.455211  -2.2885
-2.15394e-16  -1.29633  -1.9401
-0.301944  0.967075  2.70279
-0.301944  1.09853  2.65208
-2.67012e-16  0.236875  -2.40503
-8.85133e-17  -1.92475  -0.797257
-0.301944  1.22734  2.59499
-7.79214e-17  -1.96155  -0.701854
-0.301944  1.47578  2.46219
-0.301944  1.92777  2.12697
-0.301944  2.02982  2.02982
-0.301944  2.12697  1.92777
-0.301944  2.30568  1.71001
-2.86808e-16  5.73615e-16  -2.58333
-2.73523e-16  -1.02049  -2.46368
-2.96059e-16  5.92119e-16  -2.66667
-0.301944  2.59499  1.22734
-0.301944  2.65208  1.09853
-0.301944  2.70279  0.967075
-0.301944  2.78457  0.697498
-0.301944  2.86714  0.140853
-0.301944  2.8706  4.18592e-16
-0.301944  2.86714  -0.140853
-0.301944  2.78457  -0.697498
-0.301944  2.70279  -0.967075
-0.301944  2.65208  -1.09853
-0.301944  2.59499  -1.22734
-0.301944  2.46219  -1.47578
-0.301944  2.12697  -1.92777
-0.301944  2.02982  -2.02982
-0.301944  1.92777  -2.12697
-0.301944  1.71001  -2.30568
-0.301944  1.22734  -2.59499
-0.301944  1.09853  -2.65208
-0.301944  0.967075  -2.70279
-0.301944  0.697498  -2.78457
-0.301944  0.140853  -2.86714
-0.301944  6.70923e-16  -2.8706
-0.301944  -0.140853  -2.86714
-2.72222  -1.11606  1.45448
-2.72222  -1.45448  1.11606
-0.301944  -0.421204  -2.83953
-2.86806  -1.25217  1.25217
-0.301944  -0.967075  -2.70279
-2.86806  -0.983822  1.47239
-0.301944  -1.09853  -2.65208
-0.301944  -1.22734  -2.59499
-0.301944  -1.47578  -2.46219
-2.86806  -0.677669  1.63604
-3.30556  -1.31649  0.879653
-0.301944  -1.92777  -2.12697
-0.301944  -2.02982  -2.02982
-0.301944  -2.12697  -1.92777
-0.301944  -2.46219  -1.47578
-0.301944  -2.59499  -1.22734
-0.301944  -2.65208  -1.09853
-0.301944  -2.70279  -0.967075
-0.301944  -2.78457  -0.697498
-0.301944  -2.86714  -0.140853
-2.72222  1.52436  1.01855
-3.88889  -1.00245  0.879128
-3.74306  -0.885507  1.07899
-2.86806  1.36887  1.1234
-2.86806  1.1234  1.36887
-3.88889  -0.879128  1.00245
-3.88889  -0.74076  1.10863
-3.74306  -0.775483  1.16059
-3.74306  -0.657991  1.23102
-3.74306  -0.534162  1.28958
-3.14757  1.11543  1.21728
-3.06858  1.43082  0.889739
-3.94358  0.0428586  1.30919
-2.72222  1.52436  -1.01855
-2.86806  1.1234  -1.36887
-2.86806  1.36887  -1.1234
-3.14757  1.11543  -1.21728
-3.06858  1.43082  -0.889739
-4.10764  0.983428  0.754611
-5.00694  -0.402651  0.753308
-3.97396  1.2941  0.0848197
-2.72222  -1.11606  -1.45448
-2.86806  -0.677669  -1.63604
-2.86806  -0.983822  -1.47239
-2.72222  -1.45448  -1.11606
-2.86806  -1.25217  -1.25217
-4.24132  1.10191  -0.428507
-4.10764  1.11175  -0.548254
-5.62066  -0.115327  0.579787
-4.10764  0.983428  -0.754611
-5.75434  -0.0869624  0.526724
-3.94358  0.0428586  -1.30919
-3.30556  -1.31649  -0.879653
-3.88889  -0.74076  -1.10863
-3.74306  -0.534162  -1.28958
-3.74306  -0.657991  -1.23102
-3.74306  -0.775483  -1.16059
-3.74306  -0.885507  -1.07899
-3.88889  -0.879128  -1.00245
-5.35937  0.703125  1.27613e-15
-3.88889  -1.00245  -0.879128
-5.64294  0.570422  0.113464
-5.57205  0.609032  -0.0599844
-5.78472  0.520833  1.34825e-15
-5.9184  0.462549  0.0303171
-5.87384  0.471198  -0.104462
-6.05208  0.40625  1.39358e-15
-5.00694  -0.402651  -0.753308
-5.62066  -0.115327  -0.579787
-5.75434  -0.0869624  -0.526724
1.25931e-16  -1.69758  1.13429
1.63551e-16  -1.47314  1.47314
2.31389e-16  0.414567  2.08417
2.22238e-16  0.829147  2.00174
1.70093e-16  1.53206  1.53206
2.61178e-16  -0.713616  2.35248
2.09346e-16  -1.88562  1.88562
1.76635e-16  1.59099  1.59099
1.83177e-16  1.64992  1.64992
1.988e-16  1.62293  1.79063
-0.1499  -2.93487  0.0720471
-0.1499  -2.9278  0.215968
-4.78311e-17  2.1659  -0.430824
2.94587e-32  2.16667  2.6534e-16
-4.60262e-17  2.08417  -0.414567
-0.1499  -2.82941  0.783004
-0.1499  -2.73904  1.05656
-0.1499  -2.71229  1.12347
-0.1499  -2.6839  1.18969
-0.1499  -2.62229  1.31995
-9.55944e-17  2.07873  -0.861038
-0.1499  -2.31439  1.80617
3.28578e-32  2.41667  2.95956e-16
-0.1499  -2.12621  2.02432
-0.1499  -2.07589  2.07589
-0.1499  -2.02432  2.12621
-9.91349e-17  2.15572  -0.892928
-0.1499  -1.91756  2.22298
3.39908e-32  2.5  3.06162e-16
-0.1499  -1.44703  2.55436
-0.1499  -1.18969  2.6839
-0.1499  -1.12347  2.71229
-0.1499  -1.05656  2.73904
-0.1499  -0.920893  2.78758
3.51238e-32  2.58333  3.16367e-16
-2.40548e-16  4.81097e-16  -2.16667
-2.31389e-16  -0.414567  -2.08417
-0.1499  -0.359368  2.91368
-2.1369e-16  -0.797257  -1.92475
-1.8847e-16  -1.13429  -1.69758
-0.1499  -0.0720471  2.93487
-0.1499  -3.42577e-16  2.93576
-0.1499  0.0720471  2.93487
-2.498e-16  4.996e-16  -2.25
-0.1499  0.359368  2.91368
-0.1499  0.920893  2.78758
-0.1499  1.05656  2.73904
-0.1499  1.12347  2.71229
-0.1499  1.18969  2.6839
-0.1499  1.31995  2.62229
-0.1499  1.80617  2.31439
-0.1499  2.02432  2.12621
-0.1499  2.07589  2.07589
-0.1499  2.12621  2.02432
-0.1499  2.22298  1.91756
-0.1499  2.55436  1.44703
-0.1499  2.6839  1.18969
-0.1499  2.71229  1.12347
-2.61178e-16  -0.713616  -2.35248
-2.09346e-16  -1.88562  -1.88562
-0.1499  2.73904  1.05656
-0.1499  2.78758  0.920893
-0.1499  2.91368  0.359368
-0.1499  2.93487  0.0720471
-0.1499  2.93576  3.92811e-16
-0.1499  2.93487  -0.0720471
-0.1499  2.91368  -0.359368
-0.1499  2.78758  -0.920893
-0.1499  2.73904  -1.05656
-0.1499  2.71229  -1.12347
-0.1499  2.6839  -1.18969
-0.1499  2.62229  -1.31995
-0.1499  2.31439  -1.80617
-0.1499  2.12621  -2.02432
-0.1499  2.07589  -2.07589
-0.1499  2.02432  -2.12621
-0.1499  1.91756  -2.22298
-2.57639  -1.79522  0.609396
-0.1499  1.44703  -2.55436
-0.1499  1.18969  -2.6839
-0.1499  1.12347  -2.71229
-0.1499  1.05656  -2.73904
-0.1499  0.920893  -2.78758
-0.1499  0.359368  -2.91368
-0.1499  0.0720471  -2.93487
-0.1499  6.68511e-16  -2.93576
-0.1499  -0.0720471  -2.93487
-0.1499  -0.215968  -2.9278
-0.1499  -0.783004  -2.82941
-0.1499  -1.05656  -2.73904
-0.1499  -1.12347  -2.71229
-0.1499  -1.18969  -2.6839
-0.1499  -1.31995  -2.62229
-0.1499  -1.80617  -2.31439
-0.1499  -2.02432  -2.12621
-0.1499  -2.07589  -2.07589
-0.1499  -2.12621  -2.02432
-0.1499  -2.31439  -1.80617
-2.72222  0.179698  1.82451
-0.1499  -2.62229  -1.31995
-0.1499  -2.6839  -1.18969
-2.64931  0.628159  1.75559
-0.1499  -2.71229  -1.12347
-0.1499  -2.73904  -1.05656
-0.1499  -2.78758  -0.920893
-2.86806  0.259835  1.75167
-3.30556  -0.746378  1.39638
-3.30556  -5.42776e-16  1.58333
-0.1499  -2.91368  -0.359368
-0.1499  -2.93487  -0.0720471
-3.01389  0.27828  1.68552
-3.30556  0.308893  1.55291
-3.45139  -0.716916  1.34126
-2.625  1.875  8.12488e-16
-2.72222  1.83333  8.28973e-16
-3.72483  0.045926  1.40289
-3.7066  0.624272  1.2659
-2.95313  1.70105  0.33836
-2.8954  1.75888  0.0287822
-3.21441  1.485  0.653415
-2.83767  1.75327  -0.328907
-3.06858  1.6849  8.87701e-16
-3.13947  1.65451  8.99721e-16
-3.28125  1.59375  9.23762e-16
-3.42708  1.40157  0.616706
-3.52025  1.18971  0.89923
-3.37847  1.4932  0.42347
-3.7066  1.41146  9.95884e-16
-4.02561  0.582433  1.1339
-3.7066  1.19861  0.745346
-2.64931  0.628159  -1.75559
-3.84028  1.12595  0.752335
-3.21441  1.485  -0.653415
-3.37847  1.4932  -0.42347
-2.72222  0.179698  -1.82451
-3.42708  1.40157  -0.616706
-2.86806  0.259835  -1.75167
-3.01389  0.27828  -1.68552
-3.30556  7.18561e-16  -1.58333
-3.30556  0.308893  -1.55291
-3.52025  1.18971  -0.89923
-3.7066  1.19861  -0.745346
-3.7066  0.624272  -1.2659
-3.84028  1.12595  -0.752335
-2.57639  -1.79522  -0.609396
-3.30556  -0.746378  -1.39638
-3.72483  0.045926  -1.40289
-4.02561  0.582433  -1.1339
-5.49002  0.247648  0.597875
-3.45139  -0.716916  -1.34126
-5.49002  0.247648  -0.597875
2.65181e-17  -0.12767  0.238854
3.34104e-17  -0.450379  0.300934
5.89816e-17  -0.105674  0.531259
5.00022e-17  0.300934  0.450379
8.97713e-17  0.0796389  0.808588
4.09565e-17  -1.21611  0.368903
9.50911e-17  -1.28185  0.856504
1.11119e-16  0.414574  1.00087
1.11119e-16  -0.414574  1.00087
1.16216e-16  0.859074  1.04678
4.60269e-17  1.00087  0.414574
-4.60269e-17  1.00087  -0.414574
-8.8417e-18  0.808588  -0.0796389
1.88047e-16  -0.701586  1.69378
1.62404e-16  -0.605915  1.46281
1.76945e-16  0.317022  1.59378
-9.53764e-17  1.04678  -0.859074
-1.11119e-16  0.414574  -1.00087
1.85627e-16  0.89369  1.67198
2.13646e-16  -1.4272  1.92435
9.20539e-17  2.00174  0.829147
6.91561e-17  2.05343  0.622903
6.10991e-17  1.8142  0.550331
-0.0738782  -2.96811  0.0364261
-0.0738782  -2.96633  0.109256
-0.0738782  -2.94133  0.399481
-0.0738782  -2.80688  0.965631
-0.0738782  -2.75612  1.10219
-1.482e-16  1.62654  -1.33487
-1.30592e-16  1.43329  -1.17627
-0.0738782  -2.74239  1.13593
-0.0738782  -2.72824  1.1695
-0.0738782  -2.69872  1.2361
-0.0738782  -2.56456  1.49467
-0.0738782  -2.22369  1.96627
-0.0738782  -2.12453  2.07302
-0.0738782  -2.09893  2.09893
-0.0738782  -2.07302  2.12453
-0.0738782  -2.02025  2.17477
-0.0738782  -1.79736  2.36231
-0.0738782  -1.30196  2.66757
-9.26775e-17  -1.56174  -0.834765
-6.65098e-17  -1.12077  -0.599067
-1.42314e-16  -0.856504  -1.28185
-0.0738782  -1.1695  2.72824
-0.0738782  -1.13593  2.74239
-0.0738782  -1.10219  2.75612
-2.31296e-16  4.62593e-16  -2.08333
-0.0738782  -1.03422  2.78234
-2.27881e-16  -0.20216  -2.05257
-2.00259e-16  -0.177656  -1.80377
-0.0738782  -0.756527  2.87031
-0.0738782  -0.182021  2.96275
-0.0738782  -0.0364261  2.96811
-0.0738782  -3.37754e-16  2.96834
-0.0738782  0.0364261  2.96811
-0.0738782  0.182021  2.96275
-0.0738782  0.756527  2.87031
-0.0738782  1.03422  2.78234
-0.0738782  1.10219  2.75612
-0.0738782  1.13593  2.74239
-0.0738782  1.1695  2.72824
-0.0738782  1.2361  2.69872
-1.05761e-16  -1.78222  -0.952614
-0.0738782  1.49467  2.56456
-0.0738782  1.96627  2.22369
-0.0738782  2.07302  2.12453
-0.0738782  2.09893  2.09893
-0.0738782  2.12453  2.07302
-0.0738782  2.17477  2.02025
-0.0738782  2.36231  1.79736
-0.0738782  2.66757  1.30196
-0.0738782  2.72824  1.1695
-0.0738782  2.74239  1.13593
-0.0738782  2.75612  1.10219
-0.0738782  2.78234  1.03422
-0.0738782  2.87031  0.756527
-2.13646e-16  -1.4272  -1.92435
-0.0738782  2.96275  0.182021
-0.0738782  2.96811  0.0364261
-0.0738782  2.96834  3.79921e-16
-0.0738782  2.96811  -0.0364261
-0.0738782  2.96275  -0.182021
-0.0738782  2.87031  -0.756527
-0.0738782  2.78234  -1.03422
-0.0738782  2.75612  -1.10219
-0.0738782  2.74239  -1.13593
-0.0738782  2.72824  -1.1695
-0.0738782  2.69872  -1.2361
-0.0738782  2.56456  -1.49467
-0.0738782  2.22369  -1.96627
-0.0738782  2.12453  -2.07302
-0.0738782  2.09893  -2.09893
-0.0738782  2.07302  -2.12453
-0.0738782  2.02025  -2.17477
-0.0738782  1.79736  -2.36231
-0.0738782  1.30196  -2.66757
-0.0738782  1.1695  -2.72824
-0.0738782  1.13593  -2.74239
-0.0738782  1.10219  -2.75612
-0.0738782  1.03422  -2.78234
-0.0738782  0.756527  -2.87031
-0.0738782  0.182021  -2.96275
-0.0738782  0.0364261  -2.96811
-0.0738782  6.67306e-16  -2.96834
-0.0738782  -0.0364261  -2.96811
-0.0738782  -0.109256  -2.96633
-0.0738782  -0.399481  -2.94133
-0.0738782  -0.965631  -2.80688
-0.0738782  -1.10219  -2.75612
-0.0738782  -1.13593  -2.74239
-0.0738782  -1.1695  -2.72824
-0.0738782  -1.2361  -2.69872
-0.0738782  -1.49467  -2.56456
-0.0738782  -1.96627  -2.22369
-0.0738782  -2.07302  -2.12453
-0.0738782  -2.09893  -2.09893
-0.0738782  -2.12453  -2.07302
-0.0738782  -2.22369  -1.96627
-0.0738782  -2.56456  -1.49467
-0.0738782  -2.69872  -1.2361
-0.0738782  -2.72824  -1.1695
-0.0738782  -2.74239  -1.13593
-0.0738782  -2.75612  -1.10219
-0.0738782  -2.78234  -1.03422
-0.0738782  -2.87031  -0.756527
-0.0738782  -2.96275  -0.182021
-0.0738782  -2.96811  -0.0364261
-3.41291  0.816554  1.30254
-3.41291  0.816554  -1.30254
6.79541e-17  -0.28949  0.612076
1.41742e-17  0.238854  0.12767
-2.21309e-18  0.405761  -0.0199337
-2.65181e-17  0.12767  -0.238854
-3.34104e-17  0.450379  -0.300934
1.17322e-17  0.531259  0.105674
8.7761e-17  -0.872161  0.790481
3.21399e-17  0.612076  0.28949
5.72258e-17  0.628071  0.515445
8.45295e-17  0.564673  0.761374
-1.28953e-17  -0.0696181  -0.116151
-5.00022e-17  -0.300934  -0.450379
-1.41742e-17  -0.238854  -0.12767
1.06401e-16  -1.0574  0.958371
1.33844e-16  0.178828  1.20556
-5.89816e-17  0.105674  -0.531259
-6.79541e-17  0.28949  -0.612076
-8.97713e-17  -0.0796389  -0.808588
-6.97299e-17  0.515445  -0.628071
1.61299e-16  0.21551  1.45285
-6.26913e-17  0.761374  -0.564673
1.18221e-16  -1.59365  1.06484
-1.98539e-17  1.20556  -0.178828
1.50006e-16  0.902802  1.35114
5.57138e-17  1.40251  0.501826
1.00231e-16  1.35114  0.902802
-1.71411e-17  -0.616374  -0.154394
2.06761e-16  0.0914908  1.86234
3.51965e-17  1.59378  0.317022
-3.51965e-17  1.59378  -0.317022
2.20622e-16  0.0976242  1.98719
-9.6158e-17  -0.578719  -0.866114
-1.36762e-16  0.510245  -1.23184
-1.62404e-16  0.605915  -1.46281
-1.45015e-16  -0.128647  -1.30618
-1.23043e-16  -0.396547  -1.10828
1.33527e-16  1.4655  1.2027
-1.12984e-16  1.24004  -1.01767
-1.19236e-16  -0.717612  -1.07398
-4.06113e-17  1.83897  -0.365794
-1.72637e-16  -0.153152  -1.55498
-1.88047e-16  0.701586  -1.69378
-0.0358673  -2.98457  0.0183133
-0.0358673  -2.98412  0.0549372
-0.0358673  -2.97783  0.201295
-0.0358673  -2.88134  0.778374
-0.0358673  -2.79118  1.05705
-0.0358673  -2.76439  1.12523
-0.0358673  -2.75744  1.14217
-0.0358673  -2.75038  1.15907
-0.0358673  -2.73595  1.19273
-0.0358673  -2.67413  1.32554
-0.0358673  -2.36414  1.82177
-0.0358673  -2.1742  2.04472
-1.65392e-16  -0.995397  -1.48972
-0.0358673  -2.12336  2.09746
-0.0358673  -2.11045  2.11045
-0.0358673  -2.09746  2.12336
-0.0358673  -2.07125  2.14894
-0.0358673  -1.96331  2.24798
-0.0358673  -1.48702  2.58781
-0.0358673  -1.22621  2.7211
-0.0358673  -1.15907  2.75038
-0.0358673  -1.14217  2.75744
-0.0358673  -1.12523  2.76439
-0.0358673  -1.09122  2.77799
-0.0358673  -0.953595  2.82819
-0.0358673  -0.383519  2.95988
-0.0358673  -0.0915529  2.98322
-0.0358673  -0.0183133  2.98457
-0.0358673  -3.35342e-16  2.98463
-0.0358673  0.0183133  2.98457
-0.0358673  0.0915529  2.98322
-0.0358673  0.383519  2.95988
-0.0358673  0.953595  2.82819
-0.0358673  1.09122  2.77799
-0.0358673  1.12523  2.76439
-0.0358673  1.14217  2.75744
-0.0358673  1.15907  2.75038
-0.0358673  1.19273  2.73595
-0.0358673  1.32554  2.67413
-0.0358673  1.82177  2.36414
-0.0358673  2.04472  2.1742
-0.0358673  2.09746  2.12336
-0.0358673  2.11045  2.11045
-0.0358673  2.12336  2.09746
-0.0358673  2.14894  2.07125
-0.0358673  2.24798  1.96331
-0.0358673  2.58781  1.48702
-0.0358673  2.7211  1.22621
-0.0358673  2.75038  1.15907
-0.0358673  2.75744  1.14217
-0.0358673  2.76439  1.12523
-0.0358673  2.77799  1.09122
-0.0358673  2.82819  0.953595
-0.0358673  2.95988  0.383519
-0.0358673  2.98322  0.0915529
-0.0358673  2.98457  0.0183133
-0.0358673  2.98463  3.73476e-16
-0.0358673  2.98457  -0.0183133
-0.0358673  2.98322  -0.0915529
-0.0358673  2.95988  -0.383519
-0.0358673  2.82819  -0.953595
-0.0358673  2.77799  -1.09122
-0.0358673  2.76439  -1.12523
-0.0358673  2.75744  -1.14217
-0.0358673  2.75038  -1.15907
-0.0358673  2.73595  -1.19273
-0.0358673  2.67413  -1.32554
-0.0358673  2.36414  -1.82177
-0.0358673  2.1742  -2.04472
-0.0358673  2.12336  -2.09746
-0.0358673  2.11045  -2.11045
-0.0358673  2.09746  -2.12336
-0.0358673  2.07125  -2.14894
-0.0358673  1.96331  -2.24798
-0.0358673  1.48702  -2.58781
-0.0358673  1.22621  -2.7211
-0.0358673  1.15907  -2.75038
-0.0358673  1.14217  -2.75744
-0.0358673  1.12523  -2.76439
-0.0358673  1.09122  -2.77799
-0.0358673  0.953595  -2.82819
-0.0358673  0.383519  -2.95988
-0.0358673  0.0915529  -2.98322
-0.0358673  0.0183133  -2.98457
-0.0358673  6.66703e-16  -2.98463
-0.0358673  -0.0183133  -2.98457
-0.0358673  -0.0549372  -2.98412
-0.0358673  -0.201295  -2.97783
-0.0358673  -0.778374  -2.88134
-0.0358673  -1.05705  -2.79118
-0.0358673  -1.12523  -2.76439
-0.0358673  -1.14217  -2.75744
-0.0358673  -1.15907  -2.75038
-0.0358673  -1.19273  -2.73595
-0.0358673  -1.32554  -2.67413
-0.0358673  -1.82177  -2.36414
-0.0358673  -2.04472  -2.1742
-0.0358673  -2.09746  -2.12336
-0.0358673  -2.11045  -2.11045
-0.0358673  -2.12336  -2.09746
-0.0358673  -2.1742  -2.04472
-0.0358673  -2.36414  -1.82177
-0.0358673  -2.67413  -1.32554
-0.0358673  -2.73595  -1.19273
-0.0358673  -2.75038  -1.15907
-0.0358673  -2.75744  -1.14217
-0.0358673  -2.76439  -1.12523
-0.0358673  -2.77799  -1.09122
-0.0358673  -2.82819  -0.953595
-0.0358673  -2.95988  -0.383519
-0.0358673  -2.98322  -0.0915529
-0.0358673  -2.98457  -0.0183133
1.45837e-17  -0.0329036  0.131358
-1.63328e-17  0.140063  -0.147113
1.25221e-16  -0.403566  1.12789
1.38288e-16  -0.445677  1.24558
1.51354e-16  -0.487788  1.36328
7.08711e-17  1.19427  0.63835
1.47362e-17  1.34765  0.132732
-6.08611e-17  -0.47287  -0.548188
-4.36422e-17  1.29586  -0.393094
-1.17393e-16  -0.104143  -1.05738
-0.0168618  -2.99276  0.0091817
-0.0168618  -2.99265  0.0275448
-0.0168618  -2.99107  0.10098
-0.0168618  -2.96677  0.39367
-0.0168618  -2.83296  0.964893
-0.0168618  -2.7822  1.10274
-0.0168618  -2.76846  1.1368
-0.0168618  -2.76496  1.14528
-0.0168618  -2.76144  1.15376
-0.0168618  -2.7543  1.17068
-0.0168618  -2.72474  1.23793
-0.0168618  -2.59029  1.49904
-0.0168618  -2.24807  1.97557
-0.0168618  -2.14842  2.0835
-0.0168618  -2.12269  2.10971
-0.0168618  -2.11621  2.11621
-0.0168618  -2.10971  2.12269
-0.0168618  -2.09664  2.1356
-0.0168618  -2.0436  2.18641