VARIABLES = X Y Z
ZONE N =60, E =58, DATAPACKING = POINT, ZONETYPE = FETRIANGLE
0  0  8
50  0  8
50  1.71976  7.81296
50  3.35911  7.2606
50  4.84139  6.36874
50  6.0973  5.17909
50  7.0681  3.74727
50  7.7084  2.14023
50  7.98827  0.433111
50  7.89461  -1.29426
50  7.43181  -2.96111
50  6.62151  -4.4895
50  5.5016  -5.80796
50  4.12443  -6.85486
50  2.55441  -7.58123
50  0.864952  -7.9531
50  -0.864952  -7.9531
50  -2.55441  -7.58123
50  -4.12443  -6.85486
50  -5.5016  -5.80796
50  -6.62151  -4.4895
50  -7.43181  -2.96111
50  -7.89461  -1.29426
50  -7.98827  0.433111
50  -7.7084  2.14023
50  -7.0681  3.74727
50  -6.0973  5.17909
50  -4.84139  6.36874
50  -3.35911  7.2606
50  -1.71976  7.81296
50  0  8
0  0  8
0  1.71976  7.81296
0  3.35911  7.2606
0  4.84139  6.36874
0  6.0973  5.17909
0  7.0681  3.74727
0  7.7084  2.14023
0  7.98827  0.433111
0  7.89461  -1.29426
0  7.43181  -2.96111
0  6.62151  -4.4895
0  5.5016  -5.80796
0  4.12443  -6.85486
0  2.55441  -7.58123
0  0.864952  -7.9531
0  -0.864952  -7.9531
0  -2.55441  -7.58123
0  -4.12443  -6.85486
0  -5.5016  -5.80796
0  -6.62151  -4.4895
0  -7.43181  -2.96111
0  -7.89461  -1.29426
0  -7.98827  0.433111
0  -7.7084  2.14023
0  -7.0681  3.74727
0  -6.0973  5.17909
0  -4.84139  6.36874
0  -3.35911  7.2606
0  -1.71976  7.81296
33  1  2
33  2  3
34  3  4
34  33  3
35  4  5
35  34  4
36  5  6
36  35  5
37  6  7
37  7  8
37  36  6
38  37  8
39  8  9
39  9  10
39  38  8
40  39  10
41  10  11
41  11  12
41  40  10
42  41  12
42  12  13
43  42  13
44  13  14
44  43  13
45  14  15
45  44  14
46  15  16
46  45  15
47  16  17
47  46  16
48  47  17
48  17  18
49  18  19
49  48  18
50  19  20
50  49  19
51  20  21
51  50  20
52  21  22
52  22  23
52  51  21
53  52  23
53  23  24
54  24  25
54  53  24
55  54  25
56  25  26
56  55  25
57  26  27
57  56  26
58  27  28
58  57  27
59  28  29
59  29  30
59  58  28
60  59  30
32  30  31
32  60  30
VARIABLES = X Y Z
ZONE N =29, E =27, DATAPACKING = POINT, ZONETYPE = FETRIANGLE
0  0  8
0  1.71976  7.81296
0  3.35911  7.2606
0  4.84139  6.36874
0  6.0973  5.17909
0  7.0681  3.74727
0  7.7084  2.14023
0  7.98827  0.433111
0  7.89461  -1.29426
0  7.43181  -2.96111
0  6.62151  -4.4895
0  5.5016  -5.80796
0  4.12443  -6.85486
0  2.55441  -7.58123
0  0.864952  -7.9531
0  -0.864952  -7.9531
0  -2.55441  -7.58123
0  -4.12443  -6.85486
0  -5.5016  -5.80796
0  -6.62151  -4.4895
0  -7.43181  -2.96111
0  -7.89461  -1.29426
0  -7.98827  0.433111
0  -7.7084  2.14023
0  -7.0681  3.74727
0  -6.0973  5.17909
0  -4.84139  6.36874
0  -3.35911  7.2606
0  -1.71976  7.81296
3  4  5
2  5  6
2  3  5
8  6  7
1  2  6
10  8  9
11  8  10
27  28  29
27  29  1
12  6  8
12  8  11
25  26  27
14  12  13
14  1  6
14  6  12
14  27  1
24  25  27
24  27  14
15  24  14
22  23  24
22  24  15
18  16  17
20  21  22
19  15  16
19  22  15
19  16  18
19  20  22
VARIABLES = X Y Z
ZONE N =29, E =27, DATAPACKING = POINT, ZONETYPE = FETRIANGLE
0  0  8
0  1.71976  7.81296
0  3.35911  7.2606
0  4.84139  6.36874
0  6.0973  5.17909
0  7.0681  3.74727
0  7.7084  2.14023
0  7.98827  0.433111
0  7.89461  -1.29426
0  7.43181  -2.96111
0  6.62151  -4.4895
0  5.5016  -5.80796
0  4.12443  -6.85486
0  2.55441  -7.58123
0  0.864952  -7.9531
0  -0.864952  -7.9531
0  -2.55441  -7.58123
0  -4.12443  -6.85486
0  -5.5016  -5.80796
0  -6.62151  -4.4895
0  -7.43181  -2.96111
0  -7.89461  -1.29426
0  -7.98827  0.433111
0  -7.7084  2.14023
0  -7.0681  3.74727
0  -6.0973  5.17909
0  -4.84139  6.36874
0  -3.35911  7.2606
0  -1.71976  7.81296
3  4  5
2  5  6
2  3  5
8  6  7
1  2  6
10  8  9
11  8  10
27  28  29
27  29  1
12  6  8
12  8  11
25  26  27
14  12  13
14  1  6
14  6  12
14  27  1
24  25  27
24  27  14
15  24  14
22  23  24
22  24  15
18  16  17
20  21  22
19  15  16
19  22  15
19  16  18
19  20  22
VARIABLES = X Y Z
ZONE N =8159, E =16292, DATAPACKING = POINT, ZONETYPE = FETRIANGLE
0  0  0
0  0  0
0  0  0
-1.45027e-31  -5.33333  -1.30629e-15
-1.9337e-31  -7.11111  -1.74172e-15
-2.11498e-31  -7.77778  -1.90501e-15
-0.00660949  -7.99245  -1.95758e-15
-1.88368  -5.84722  -1.43216e-15
-4.50868  -2.84722  -6.97368e-16
-6.47743  -0.597222  -1.46277e-16
-6.9813  -0.0213723  -5.2347e-18
-6.99491  1.9021e-31  0
-3.76128  1.02279e-31  0
0  0  0
-1.45027e-31  -5.33333  -1.30629e-15
-1.9337e-31  -7.11111  -1.74172e-15
-2.11498e-31  -7.77778  -1.90501e-15
-0.00660949  -7.99245  -1.95758e-15
-1.88368  -5.84722  -1.43216e-15
-4.50868  -2.84722  -6.97368e-16
-6.47743  -0.597222  -1.46277e-16
-6.9813  -0.0213723  -5.2347e-18
-6.99491  1.9021e-31  0
-3.76128  1.02279e-31  0
1.54022e-16  -6.97447  1.38731
1.71677e-16  -7.77392  1.54633
3.02125e-16  -6.56981  2.7213
3.36756e-16  -7.32287  3.03323
-0.325087  -7.48189  1.48824
4.88894e-16  -6.59041  4.40357
4.38618e-16  -5.91267  3.95072
6.22245e-16  -5.60468  5.60468
5.58255e-16  -5.02831  5.02831
7.31682e-16  -4.40357  6.59041
6.56439e-16  -3.95072  5.91267
8.13002e-16  -3.03323  7.32287
7.29395e-16  -2.7213  6.56981
8.63078e-16  -1.54633  7.77392
7.74322e-16  -1.38731  6.97447
7.89492e-16  -7.89492e-16  7.11111
8.79987e-16  -8.79987e-16  7.92622
8.63078e-16  1.54633  7.77392
7.74322e-16  1.38731  6.97447
7.29395e-16  2.7213  6.56981
-1.88368  -5.73487  1.14074
-0.325087  -7.04779  2.91929
8.13002e-16  3.03323  7.32287
-1.88368  -5.40213  2.23764
7.31682e-16  4.40357  6.59041
6.56439e-16  3.95072  5.91267
-1.88368  -4.86179  3.24854
-0.325087  -6.34284  4.23815
6.22245e-16  5.60468  5.60468
5.58255e-16  5.02831  5.02831
-1.88368  -4.13461  4.13461
-0.325087  -5.39414  5.39414
4.88894e-16  6.59041  4.40357
4.38618e-16  5.91267  3.95072
-1.88368  -3.24854  4.86179
-0.325087  -4.23815  6.34284
-0.325087  -2.91929  7.04779
3.36756e-16  7.32287  3.03323
3.02125e-16  6.56981  2.7213
-1.88368  -2.23764  5.40213
1.71677e-16  7.77392  1.54633
1.54022e-16  6.97447  1.38731
-1.88368  -1.14074  5.73487
-0.325087  -1.48824  7.48189
1.07767e-31  7.92622  9.70681e-16
9.66849e-32  7.11111  8.7086e-16
-1.88368  -8.58303e-16  5.84722
-0.325087  -8.83022e-16  7.62847
-1.71677e-16  7.77392  -1.54633
-1.54022e-16  6.97447  -1.38731
-1.88368  1.14074  5.73487
-0.325087  1.48824  7.48189
-3.36756e-16  7.32287  -3.03323
-3.02125e-16  6.56981  -2.7213
-1.88368  2.23764  5.40213
-0.325087  2.91929  7.04779
-0.325087  4.23815  6.34284
-4.88894e-16  6.59041  -4.40357
-4.38618e-16  5.91267  -3.95072
-1.88368  3.24854  4.86179
-6.22245e-16  5.60468  -5.60468
-5.58255e-16  5.02831  -5.02831
-1.88368  4.13461  4.13461
-0.325087  5.39414  5.39414
-7.31682e-16  4.40357  -6.59041
-6.56439e-16  3.95072  -5.91267
-7.29395e-16  2.7213  -6.56981
-1.88368  4.86179  3.24854
-0.325087  6.34284  4.23815
-8.13002e-16  3.03323  -7.32287
-1.88368  5.40213  2.23764
-0.325087  7.04779  2.91929
-8.63078e-16  1.54633  -7.77392
-7.74322e-16  1.38731  -6.97447
-7.89492e-16  1.57898e-15  -7.11111
-1.88368  5.73487  1.14074
-0.325087  7.48189  1.48824
-8.79987e-16  1.75997e-15  -7.92622
-1.88368  5.84722  1.13434e-15
-0.325087  7.62847  1.0064e-15
-8.63078e-16  -1.54633  -7.77392
-7.74322e-16  -1.38731  -6.97447
-7.29395e-16  -2.7213  -6.56981
-1.88368  5.73487  -1.14074
-0.325087  7.48189  -1.48824
-8.13002e-16  -3.03323  -7.32287
-1.88368  5.40213  -2.23764
-0.325087  7.04779  -2.91929
-7.31682e-16  -4.40357  -6.59041
-6.56439e-16  -3.95072  -5.91267
-5.58255e-16  -5.02831  -5.02831
-1.88368  4.86179  -3.24854
-0.325087  6.34284  -4.23815
-1.54022e-16  -6.97447  -1.38731
-6.22245e-16  -5.60468  -5.60468
-1.88368  4.13461  -4.13461
-0.325087  5.39414  -5.39414
-0.325087  4.23815  -6.34284
-4.88894e-16  -6.59041  -4.40357
-4.38618e-16  -5.91267  -3.95072
-3.02125e-16  -6.56981  -2.7213
-1.88368  3.24854  -4.86179
-6.47743  -0.585747  0.116512
-3.36756e-16  -7.32287  -3.03323
-1.88368  2.23764  -5.40213
-0.325087  2.91929  -7.04779
-1.71677e-16  -7.77392  -1.54633
-1.88368  1.14074  -5.73487
-0.325087  1.48824  -7.48189
-0.325087  1.72995e-15  -7.62847
-6.9813  -0.0209616  0.00416953
-6.99325  -1.51469e-16  1.49184e-17
-6.91691  -1.49816e-16  1.47556e-17
-1.88368  1.50747e-15  -5.84722
-0.325087  -7.48189  -1.48824
-6.9813  -0.0197454  0.00817883
-6.47743  -0.551761  0.228547
-6.99325  -2.97118e-16  5.91005e-17
-6.91691  -2.93874e-16  5.84553e-17
-1.88368  -1.14074  -5.73487
-0.325087  -1.48824  -7.48189
-6.61152  -1.43201e-16  1.41041e-17
-6.9813  -0.0177704  0.0118738
-6.47743  -0.496572  0.331799
-6.47743  -0.4223  0.4223
-6.99325  -4.31349e-16  1.30848e-16
-6.91691  -4.2664e-16  1.2942e-16
-1.88368  -2.23764  -5.40213
-0.325087  -2.91929  -7.04779
-6.61152  -2.809e-16  5.58744e-17
-6.9813  -0.0151125  0.0151125
-6.99325  -5.49003e-16  2.27404e-16
-6.91691  -5.43009e-16  2.24922e-16
-1.88368  -3.24854  -4.86179
-0.325087  -4.23815  -6.34284
-0.325087  -5.39414  -5.39414
-6.61152  -4.07803e-16  1.23706e-16
-6.9813  -0.0118738  0.0177704
-6.47743  -0.331799  0.496572
-6.99325  -6.45559e-16  3.45058e-16
-6.91691  -6.38511e-16  3.41291e-16
-1.88368  -4.13461  -4.13461
-6.61152  -5.19035e-16  2.14991e-16
-6.9813  -0.00817883  0.0197454
-6.47743  -0.228547  0.551761
-6.47743  -0.116512  0.585747
-6.99325  -7.17307e-16  4.79289e-16
-6.91691  -7.09476e-16  4.74056e-16
-1.88368  -4.86179  -3.24854
-0.325087  -6.34284  -4.23815
-0.325087  -7.04779  -2.91929
-6.61152  -6.10321e-16  3.26223e-16
-6.9813  -0.00416953  0.0209616
-6.47743  -7.85444e-16  0.597222
-6.99325  -7.61489e-16  6.24937e-16
-6.91691  -7.53175e-16  6.18115e-16
-1.88368  -5.40213  -2.23764
-6.61152  -6.78152e-16  4.53127e-16
-6.9813  -7.77453e-16  0.0213723
-6.99325  -7.76407e-16  7.76407e-16
-5.38999  -1.16744e-16  1.14983e-17
-6.91691  -7.67931e-16  7.67931e-16
-1.88368  -5.73487  -1.14074
-6.61152  -7.19922e-16  5.90825e-16
-6.9813  0.00416953  0.0209616
-6.47743  0.116512  0.585747
-6.47743  0.228547  0.551761
-6.99325  -7.61489e-16  9.27876e-16
-5.38999  -2.29001e-16  4.55512e-17
-6.91691  -7.53175e-16  9.17747e-16
-6.61152  -7.34027e-16  7.34027e-16
-6.9813  0.00817883  0.0197454
-6.99325  -7.17307e-16  1.07353e-15
-5.38999  -3.32458e-16  1.0085e-16
-6.91691  -7.09476e-16  1.06181e-15
-6.61152  -7.19922e-16  8.77228e-16
-6.9813  0.0118738  0.0177704
-6.47743  0.331799  0.496572
-6.47743  0.4223  0.4223
-6.99325  -6.45559e-16  1.20776e-15
-5.38999  -4.23139e-16  1.7527e-16
-6.91691  -6.38511e-16  1.19457e-15
-6.61152  -6.78152e-16  1.01493e-15
-6.9813  0.0151125  0.0151125
-6.99325  -5.49003e-16  1.32541e-15
-5.38999  -4.97559e-16  2.65951e-16
-6.91691  -5.43009e-16  1.31094e-15
-6.61152  -6.10321e-16  1.14183e-15
-6.9813  0.0177704  0.0118738
-6.47743  0.496572  0.331799
-6.47743  0.551761  0.228547
-6.99325  -4.31349e-16  1.42197e-15
-5.38999  -5.52858e-16  3.69408e-16
-6.91691  -4.2664e-16  1.40644e-15
-6.61152  -5.19035e-16  1.25306e-15
-6.9813  0.0197454  0.00817883
-6.99325  -2.97118e-16  1.49371e-15
-5.38999  -5.86911e-16  4.81666e-16
-6.91691  -2.93874e-16  1.47741e-15
-6.61152  -4.07803e-16  1.34435e-15
-6.9813  0.0209616  0.00416953
-6.47743  0.585747  0.116512
-6.99325  -1.51469e-16  1.5379e-15
-5.38999  -5.98409e-16  5.98409e-16
-6.91691  -1.49816e-16  1.52111e-15
-6.61152  -2.809e-16  1.41218e-15
-6.9813  0.0213723  1.55278e-15
-6.47743  0.597222  1.51142e-15
-6.47743  0.585747  -0.116512
-6.99325  -9.50824e-32  1.55281e-15
-5.38999  -5.86911e-16  7.15153e-16
-6.91691  -9.40444e-32  1.53586e-15
-6.61152  -1.43201e-16  1.45395e-15
-6.9813  0.0209616  -0.00416953
-6.47743  0.551761  -0.228547
-6.99325  1.51469e-16  1.5379e-15
-5.38999  -5.52858e-16  8.27411e-16
-6.91691  1.49816e-16  1.52111e-15
-6.61152  -8.98923e-32  1.46805e-15
-6.9813  0.0197454  -0.00817883
-6.47743  0.496572  -0.331799
-6.99325  2.97118e-16  1.49371e-15
-5.38999  -4.97559e-16  9.30868e-16
-6.91691  2.93874e-16  1.47741e-15
-6.61152  1.43201e-16  1.45395e-15
-6.9813  0.0177704  -0.0118738
-6.99325  4.31349e-16  1.42197e-15
-5.38999  -4.23139e-16  1.02155e-15
-6.91691  4.2664e-16  1.40644e-15
-6.61152  2.809e-16  1.41218e-15
-6.9813  0.0151125  -0.0151125
-6.47743  0.4223  -0.4223
-6.47743  0.331799  -0.496572
-6.99325  5.49003e-16  1.32541e-15
-5.38999  -3.32458e-16  1.09597e-15
-6.91691  5.43009e-16  1.31094e-15
-6.61152  4.07803e-16  1.34435e-15
-6.9813  0.0118738  -0.0177704
-6.99325  6.45559e-16  1.20776e-15
-5.38999  -2.29001e-16  1.15127e-15
-6.91691  6.38511e-16  1.19457e-15
-6.61152  5.19035e-16  1.25306e-15
-6.9813  0.00817883  -0.0197454
-6.47743  0.228547  -0.551761
-6.47743  0.116512  -0.585747
-6.99325  7.17307e-16  1.07353e-15
-5.38999  -1.16744e-16  1.18532e-15
-6.91691  7.09476e-16  1.06181e-15
-6.61152  6.10321e-16  1.14183e-15
-6.9813  0.00416953  -0.0209616
-6.99325  7.61489e-16  9.27876e-16
-5.38999  -7.3284e-32  1.19682e-15
-6.91691  7.53175e-16  9.17747e-16
-6.61152  6.78152e-16  1.01493e-15
-6.9813  7.79826e-16  -0.0213723
-6.47743  8.51749e-16  -0.597222
-6.99325  7.76407e-16  7.76407e-16
-5.38999  1.16744e-16  1.18532e-15
-6.91691  7.67931e-16  7.67931e-16
-6.61152  7.19922e-16  8.77228e-16
-6.9813  -0.00416953  -0.0209616
-6.47743  -0.116512  -0.585747
-6.99325  7.61489e-16  6.24937e-16
-5.38999  2.29001e-16  1.15127e-15
-6.91691  7.53175e-16  6.18115e-16
-6.61152  7.34027e-16  7.34027e-16
-6.9813  -0.00817883  -0.0197454
-6.47743  -0.228547  -0.551761
-6.99325  7.17307e-16  4.79289e-16
-5.38999  3.32458e-16  1.09597e-15
-6.91691  7.09476e-16  4.74056e-16
-6.61152  7.19922e-16  5.90825e-16
-6.9813  -0.0118738  -0.0177704
-6.47743  -0.331799  -0.496572
-6.99325  6.45559e-16  3.45058e-16
-5.38999  4.23139e-16  1.02155e-15
-6.91691  6.38511e-16  3.41291e-16
-6.61152  6.78152e-16  4.53127e-16
-6.9813  -0.0151125  -0.0151125
-6.47743  -0.4223  -0.4223
-6.47743  -0.496572  -0.331799
-6.99325  5.49003e-16  2.27404e-16
-5.38999  4.97559e-16  9.30868e-16
-6.91691  5.43009e-16  2.24922e-16
-6.61152  6.10321e-16  3.26223e-16
-6.9813  -0.0177704  -0.0118738
-6.99325  4.31349e-16  1.30848e-16
-5.38999  5.52858e-16  8.27411e-16
-6.91691  4.2664e-16  1.2942e-16
-6.61152  5.19035e-16  2.14991e-16
-6.9813  -0.0197454  -0.00817883
-6.47743  -0.551761  -0.228547
-6.47743  -0.585747  -0.116512
-6.99325  2.97118e-16  5.91005e-17
-5.38999  5.86911e-16  7.15153e-16
-6.91691  2.93874e-16  5.84553e-17
-6.61152  4.07803e-16  1.23706e-16
-6.9813  -0.0209616  -0.00416953
-6.99325  1.51469e-16  1.49184e-17
-5.38999  5.98409e-16  5.98409e-16
-6.91691  1.49816e-16  1.47556e-17
-6.61152  2.809e-16  5.58744e-17
-5.38999  5.86911e-16  4.81666e-16
-6.61152  1.43201e-16  1.41041e-17
-5.38999  5.52858e-16  3.69408e-16
-5.38999  4.97559e-16  2.65951e-16
-5.38999  4.23139e-16  1.7527e-16
-5.38999  3.32458e-16  1.0085e-16
-5.38999  2.29001e-16  4.55512e-17
-5.38999  1.16744e-16  1.14983e-17
1.34769e-16  -6.10266  1.2139
2.0053e-16  -5.9543  1.80622
2.6436e-16  -5.74858  2.38114
3.25643e-16  -5.48751  2.93314
3.83791e-16  -5.17359  3.45688
4.38242e-16  -4.80984  3.94734
4.88473e-16  -4.39978  4.39978
5.34e-16  -3.94734  4.80984
5.74384e-16  -3.45688  5.17359
8.66963e-17  -7.92852  0.780891
2.56643e-16  -7.62043  2.31163
4.16765e-16  -7.02303  3.75389
5.60871e-16  -6.15573  5.05188
6.83424e-16  -5.05188  6.15573
7.79712e-16  -3.75389  7.02303
8.46037e-16  -2.31163  7.62043
8.79849e-16  -0.780542  7.92498
8.79849e-16  0.780542  7.92498
8.46037e-16  2.31163  7.62043
7.79712e-16  3.75389  7.02303
6.83424e-16  5.05188  6.15573
5.60871e-16  6.15573  5.05188
4.16765e-16  7.02303  3.75389
2.56643e-16  7.62043  2.31163
-3.19618  -4.32629  0.426102
8.66576e-17  7.92498  0.780542
-8.66576e-17  7.92498  -0.780542
-2.56643e-16  7.62043  -2.31163
-3.19618  -3.07395  3.07395
-2.75868  -3.64433  3.196
-2.75868  -3.196  3.64433
-3.19618  -3.36045  2.75785
-4.16765e-16  7.02303  -3.75389
-3.19618  -2.75785  3.36045
-2.75868  -2.69297  4.03032
-3.19618  -2.41519  3.61458
-2.75868  -2.14387  4.34734
-5.60871e-16  6.15573  -5.05188
-6.83424e-16  5.05188  -6.15573
-5.34e-16  -3.94734  -4.80984
-5.74384e-16  -3.45688  -5.17359
-4.88473e-16  -4.39978  -4.39978
-7.79712e-16  3.75389  -7.02303
-4.38242e-16  -4.80984  -3.94734
-3.83791e-16  -5.17359  -3.45688
-8.46037e-16  2.31163  -7.62043
-3.25643e-16  -5.48751  -2.93314
-2.6436e-16  -5.74858  -2.38114
-8.79849e-16  0.780542  -7.92498
-2.0053e-16  -5.9543  -1.80622
-1.34769e-16  -6.10266  -1.2139
-8.79849e-16  -0.780542  -7.92498
-5.49306  -1.71393  0.168807
-8.46037e-16  -2.31163  -7.62043
-7.79712e-16  -3.75389  -7.02303
-6.83424e-16  -5.05188  -6.15573
-5.82118  -1.20829  0.595861
-5.49306  -1.68913  0.335989
-5.49306  -1.64806  0.499935
-5.49306  -1.59113  0.659066
-5.49306  -1.51886  0.81185
-5.60871e-16  -6.15573  -5.05188
-5.82118  -1.12017  0.748477
-5.49306  -1.43198  0.956815
-5.49306  -1.3313  1.09257
-5.82118  -1.0129  0.888285
-5.49306  -1.2178  1.2178
-4.16765e-16  -7.02303  -3.75389
-5.82118  -0.888285  1.0129
-5.49306  -1.09257  1.3313
-2.56643e-16  -7.62043  -2.31163
-5.82118  -0.748477  1.12017
-5.49306  -0.956815  1.43198
-5.82118  -0.595861  1.20829
-8.66963e-17  -7.92852  -0.780891
-5.82118  -0.43305  1.27573
-3.19618  -2.41519  -3.61458
-2.75868  -2.14387  -4.34734
-2.75868  -2.69297  -4.03032
-3.19618  -2.75785  -3.36045
-2.75868  -3.196  -3.64433
-3.19618  -3.07395  -3.07395
-2.75868  -3.64433  -3.196
-3.19618  -3.36045  -2.75785
-3.19618  -4.32629  -0.426102
-5.82118  -0.595861  -1.20829
-5.82118  -0.43305  -1.27573
-5.49306  -0.956815  -1.43198
-5.82118  -0.748477  -1.12017
-5.49306  -1.09257  -1.3313
-5.82118  -0.888285  -1.0129
-5.49306  -1.2178  -1.2178
-5.82118  -1.0129  -0.888285
-5.49306  -1.3313  -1.09257
-5.82118  -1.12017  -0.748477
-5.49306  -1.43198  -0.956815
-5.49306  -1.51886  -0.81185
-5.82118  -1.20829  -0.595861
-5.49306  -1.59113  -0.659066
-5.49306  -1.64806  -0.499935
-5.49306  -1.68913  -0.335989
-5.49306  -1.71393  -0.168807
1.25143e-16  -5.66676  1.12719
1.55863e-16  -5.60463  1.40389
1.86207e-16  -5.52899  1.6772
2.16102e-16  -5.44003  1.94647
2.45477e-16  -5.33797  2.21106
2.7426e-16  -5.22305  2.47032
3.02383e-16  -5.09555  2.72363
1.30057e-16  -7.89725  1.17145
1.72481e-16  -7.81031  1.55357
2.15321e-16  -7.74267  1.93944
-0.148055  -7.74604  1.14902
2.98541e-16  -7.51529  2.68901
3.38333e-16  -7.35715  3.04743
-0.146498  -7.59784  1.90316
3.78885e-16  -7.21553  3.41269
-0.146498  -7.37471  2.63871
4.55581e-16  -6.84629  4.10351
4.91183e-16  -6.62126  4.42419
-0.146498  -7.08056  3.34886
5.27889e-16  -6.41111  4.7548
7.36585e-16  0.653448  6.63456
7.40149e-16  -7.40149e-16  6.66667
-0.146498  -6.71822  4.02675
5.95113e-16  -5.91418  5.3603
6.25158e-16  -5.63092  5.63092
7.25927e-16  1.3006  6.53857
-0.146498  -6.29118  4.66586
6.56606e-16  -5.3603  5.91418
7.08278e-16  1.93523  6.3796
-0.146498  -5.80355  5.26004
7.11776e-16  -4.7548  6.41111
7.35108e-16  -4.42419  6.62126
6.83808e-16  2.55122  6.1592
-0.146498  -5.26004  5.80355
7.6009e-16  -4.10351  6.84629
6.52753e-16  3.14264  5.87948
-0.146498  -4.66586  6.29118
8.01085e-16  -3.41269  7.21553
8.16808e-16  -3.04743  7.35715
-0.146498  -4.02675  6.71822
8.34365e-16  -2.68901  7.51529
-0.146498  -3.34886  7.08056
8.59609e-16  -1.93944  7.74267
8.67119e-16  -1.55357  7.81031
-0.146498  -2.63871  7.37471
8.76575e-16  -1.17118  7.89549
-0.146498  -1.90316  7.59784
8.85099e-16  -0.391652  7.97226
8.84107e-16  -8.84107e-16  7.96332
-0.146498  -1.14928  7.7478
8.85099e-16  0.391652  7.97226
-0.146498  -0.384326  7.82314
8.76575e-16  1.17118  7.89549
8.67119e-16  1.55357  7.81031
-0.146498  0.384326  7.82314
8.59609e-16  1.93944  7.74267
-0.146498  1.14928  7.7478
8.34365e-16  2.68901  7.51529
8.16808e-16  3.04743  7.35715
-0.146498  1.90316  7.59784
8.01085e-16  3.41269  7.21553
-0.146498  2.63871  7.37471
7.6009e-16  4.10351  6.84629
7.35108e-16  4.42419  6.62126
-0.146498  3.34886  7.08056
7.11776e-16  4.7548  6.41111
-0.146498  4.02675  6.71822
6.56606e-16  5.3603  5.91418
6.25158e-16  5.63092  5.63092
-0.146498  4.66586  6.29118
5.95113e-16  5.91418  5.3603
-0.146498  5.26004  5.80355
-2.32118  -4.79578  2.36502
5.27889e-16  6.41111  4.7548
4.91183e-16  6.62126  4.42419
-0.146498  5.80355  5.26004
-2.32118  -4.54087  2.8237
4.55581e-16  6.84629  4.10351
-0.146498  6.29118  4.66586
-2.61285  -4.67298  1.81722
-3.19618  -4.26369  0.848101
3.78885e-16  7.21553  3.41269
3.38333e-16  7.35715  3.04743
-0.146498  6.71822  4.02675
2.98541e-16  7.51529  2.68901
-0.146498  7.08056  3.34886
2.15321e-16  7.74267  1.93944
1.72481e-16  7.81031  1.55357
-0.146498  7.37471  2.63871
1.30028e-16  7.89549  1.17118
-0.146498  7.59784  1.90316
-3.05035  -4.1512  1.77278
-3.19618  -4.01631  1.66361
-3.19618  -4.16003  1.26193
-2.97743  -4.12312  2.0333
-3.19618  -3.83391  2.04927
4.34821e-17  7.97226  0.391652
1.08272e-31  7.96332  9.75226e-16
-2.97743  -4.01839  2.23316
-3.19618  -3.61458  2.41519
-0.146498  7.7478  1.14928
-4.34821e-17  7.97226  -0.391652
-6.52753e-16  3.14264  -5.87948
-0.146498  7.82314  0.384326
-1.30028e-16  7.89549  -1.17118
-1.72481e-16  7.81031  -1.55357
-6.83808e-16  2.55122  -6.1592
-0.146498  7.82314  -0.384326
-2.15321e-16  7.74267  -1.93944
-7.08278e-16  1.93523  -6.3796
-0.146498  7.7478  -1.14928
-2.98541e-16  7.51529  -2.68901
-3.38333e-16  7.35715  -3.04743
-3.85243  -3.55829  0.527822
-7.25927e-16  1.3006  -6.53857
-0.146498  7.59784  -1.90316
-2.32118  -0.349725  5.33577
-2.32118  -0.871038  5.2758
-3.85243  -3.5281  0.701783
-3.78885e-16  7.21553  -3.41269
-3.85243  -3.48942  0.874054
-7.36585e-16  0.653448  -6.63456
-0.146498  7.37471  -2.63871
-2.32118  0.174956  5.34436
-3.85243  -3.44233  1.04422
-4.55581e-16  6.84629  -4.10351
-4.91183e-16  6.62126  -4.42419
-2.17535  1.19342  5.38319
-7.40149e-16  1.4803e-15  -6.66667
-0.146498  7.08056  -3.34886
-2.32118  0.697953  5.30148
-5.27889e-16  6.41111  -4.7548
-0.146498  6.71822  -4.02675
-5.95113e-16  5.91418  -5.3603
-6.25158e-16  5.63092  -5.63092
-0.146498  6.29118  -4.66586
-6.56606e-16  5.3603  -5.91418
-0.146498  5.80355  -5.26004
-7.11776e-16  4.7548  -6.41111
-7.35108e-16  4.42419  -6.62126
-3.99826  -2.76655  2.02852
-0.146498  5.26004  -5.80355
-7.6009e-16  4.10351  -6.84629
-2.7426e-16  -5.22305  -2.47032
-3.02383e-16  -5.09555  -2.72363
-3.74306  -2.16811  3.0256
-0.146498  4.66586  -6.29118
-2.45477e-16  -5.33797  -2.21106
-3.74306  -2.01704  3.12834
-8.01085e-16  3.41269  -7.21553
-8.16808e-16  3.04743  -7.35715
-2.16102e-16  -5.44003  -1.94647
-3.74306  -1.86111  3.22354
-0.146498  4.02675  -6.71822
-1.86207e-16  -5.52899  -1.6772
-8.34365e-16  2.68901  -7.51529
-1.55863e-16  -5.60463  -1.40389
-0.146498  3.34886  -7.08056
-1.25143e-16  -5.66676  -1.12719
-8.59609e-16  1.93944  -7.74267
-8.67119e-16  1.55357  -7.81031
-0.146498  2.63871  -7.37471
-5.00087  -2.24082  0.445727
-8.76575e-16  1.17118  -7.89549
-5.00087  -2.21625  0.555142
-0.146498  1.90316  -7.59784
-8.85099e-16  0.391652  -7.97226
-8.84107e-16  1.76821e-15  -7.96332
-0.146498  1.14928  -7.7478
-3.68837  -0.185708  3.78016
-3.37847  -0.584962  4.09734
-3.46962  0.329722  4.02123
-3.74306  -1.53619  3.39044
-8.85099e-16  -0.391652  -7.97226
-0.146498  0.384326  -7.82314
-3.88889  -0.425613  3.52999
-4.28993  -0.80162  2.99169
-8.76575e-16  -1.17118  -7.89549
-8.67119e-16  -1.55357  -7.81031
-0.146498  -0.384326  -7.82314
-5.16493  -1.91028  0.865538
-5.00087  -2.18634  0.66322
-5.00087  -2.15117  0.7697
-4.76389  -2.01037  1.57775
-8.59609e-16  -1.93944  -7.74267
-0.146498  -1.14928  -7.7478
-8.34365e-16  -2.68901  -7.51529
-8.16808e-16  -3.04743  -7.35715
-3.7066  1.05325  3.61352
-3.46962  0.722283  3.96955
-0.146498  -1.90316  -7.59784
-8.01085e-16  -3.41269  -7.21553
-0.146498  -2.63871  -7.37471
-7.6009e-16  -4.10351  -6.84629
-7.35108e-16  -4.42419  -6.62126
-0.146498  -3.34886  -7.08056
-5.09201  -1.30849  1.74433
-4.89149  -1.30581  2.02525
-4.89149  -1.20486  2.08688
-4.89149  -1.10101  2.14349
-7.11776e-16  -4.7548  -6.41111
-4.23524  0.361115  3.13902
-4.18056  1.51895  2.84175
-4.89149  -0.994509  2.19493
-0.146498  -4.02675  -6.71822
-6.56606e-16  -5.3603  -5.91418
-6.25158e-16  -5.63092  -5.63092
-0.146498  -4.66586  -6.29118
-5.95113e-16  -5.91418  -5.3603
-0.146498  -5.26004  -5.80355
-5.27889e-16  -6.41111  -4.7548
-4.91183e-16  -6.62126  -4.42419
-4.76389  -0.0836154  2.55419
-0.146498  -5.80355  -5.26004
-4.55581e-16  -6.84629  -4.10351
-0.146498  -6.29118  -4.66586
-3.78885e-16  -7.21553  -3.41269
-3.38333e-16  -7.35715  -3.04743
-0.146498  -6.71822  -4.02675
-2.98541e-16  -7.51529  -2.68901
-0.146498  -7.08056  -3.34886
-2.15321e-16  -7.74267  -1.93944
-1.72481e-16  -7.81031  -1.55357
-0.146498  -7.37471  -2.63871
-1.30057e-16  -7.89725  -1.17145
-0.146498  -7.59784  -1.90316
-0.148055  -7.74604  -1.14902
-2.17535  1.19342  -5.38319
-2.32118  0.174956  -5.34436
-2.32118  0.697953  -5.30148
-2.32118  -0.349725  -5.33577
-6.14931  -0.0635864  0.970141
-2.32118  -0.871038  -5.2758
-6.14931  0.0318102  0.971702
-6.25868  0.183372  0.82714
-6.14931  0.1269  0.963905
-3.7066  1.05325  -3.61352
-3.46962  0.722283  -3.96955
-3.46962  0.329722  -4.02123
-2.32118  -4.79578  -2.36502
-2.32118  -4.54087  -2.8237
-3.68837  -0.185708  -3.78016
-3.37847  -0.584962  -4.09734
-2.61285  -4.67298  -1.81722
-3.19618  -4.26369  -0.848101
-3.88889  -0.425613  -3.52999
-4.23524  0.361115  -3.13902
-4.28993  -0.80162  -2.99169
-4.18056  1.51895  -2.84175
-2.97743  -4.01839  -2.23316
-3.19618  -3.61458  -2.41519
-3.19618  -3.83391  -2.04927
-3.74306  -1.53619  -3.39044
-2.97743  -4.12312  -2.0333
-3.05035  -4.1512  -1.77278
-3.19618  -4.01631  -1.66361
-3.19618  -4.16003  -1.26193
-3.74306  -2.01704  -3.12834
-3.74306  -1.86111  -3.22354
-3.74306  -2.16811  -3.0256
-4.76389  -0.0836154  -2.55419
-3.99826  -2.76655  -2.02852
-3.85243  -3.44233  -1.04422
-4.89149  -0.994509  -2.19493
-3.85243  -3.48942  -0.874054
-3.85243  -3.5281  -0.701783
-3.85243  -3.55829  -0.527822
-5.09201  -1.30849  -1.74433
-4.89149  -1.10101  -2.14349
-4.89149  -1.20486  -2.08688
-4.89149  -1.30581  -2.02525
-4.76389  -2.01037  -1.57775
-6.25868  0.183372  -0.82714
-6.14931  0.0318102  -0.971702
-6.14931  0.1269  -0.963905
-6.14931  -0.0635864  -0.970141
-5.16493  -1.91028  -0.865538
-5.00087  -2.15117  -0.7697
-5.00087  -2.18634  -0.66322
-5.00087  -2.21625  -0.555142
-5.00087  -2.24082  -0.445727
3.77657e-17  -0.821226  0.340163
1.32548e-16  -1.31725  1.19388
1.25212e-16  -1.37424  1.12781
1.39564e-16  -1.25708  1.25708
9.11744e-17  -0.340163  0.821226
1.2033e-16  -5.44881  1.08384
1.3514e-16  -5.42057  1.21723
1.49868e-16  -5.38906  1.34989
1.82856e-16  -4.6031  1.64702
4.16145e-16  -2.77993  3.7483
3.1303e-16  -3.4356  2.81953
3.80908e-16  -2.05641  3.43091
4.22591e-16  -4.63806  3.80636
4.47348e-16  -4.44571  4.02935
5.50442e-16  1.2419  4.95794
5.40162e-16  -0.479195  4.86535
4.72185e-16  1.29015  4.25307
4.64588e-16  1.49729  4.18464
-0.068436  -7.88364  0.776471
1.51694e-16  -7.87438  1.36634
1.72883e-16  -7.82851  1.55719
-0.0595396  -7.8723  0.970956
-0.0668786  -7.83781  1.16263
1.94386e-16  -7.79699  1.75087
-0.0653212  -7.68783  1.9257
-0.0572035  -7.6472  2.11627
3.19298e-16  -7.45569  2.87598
3.39121e-16  -7.37429  3.05453
-0.0572035  -7.53415  2.48895
-0.0653212  -7.46206  2.66997
3.59529e-16  -7.30559  3.23835
7.14615e-16  0.316214  6.43668
7.15477e-16  -7.15477e-16  6.44444
-0.0653212  -7.16443  3.38852
-3.77657e-17  -0.821226  -0.340163
-1.32548e-16  -1.31725  -1.19388
-1.39564e-16  -1.25708  -1.25708
-1.25212e-16  -1.37424  -1.12781
-0.0572035  -7.0874  3.5675
7.50124e-16  -1.34396  6.75652
6.38221e-16  -2.38114  5.74858
6.6106e-16  -1.80622  5.9543
6.77532e-16  -1.2139  6.10266
4.74648e-16  -6.75136  4.27525
4.92328e-16  -6.63669  4.43449
-0.0572035  -6.90381  3.91096
-0.0653212  -6.7978  4.07444
5.10855e-16  -6.53345  4.60137
5.35044e-16  3.5742  4.81925
4.92329e-16  2.96304  4.4345
4.57714e-16  3.38343  4.12272
-0.0653212  -6.3657  4.72112
-0.0572035  -6.25523  4.88163
6.11758e-16  -5.78757  5.51023
6.26614e-16  -5.64404  5.64404
-0.0572035  -6.00817  5.18268
-0.0653212  -5.87229  5.32234
6.4255e-16  -5.51023  5.78757
-0.0653212  -5.32234  5.87229
-0.0572035  -5.18268  6.00817
7.25358e-16  -4.60137  6.53345
7.36821e-16  -4.43449  6.63669
-0.0572035  -4.88163  6.25523
-0.0653212  -4.72112  6.3657
7.49551e-16  -4.27525  6.75136
-0.0653212  -4.07444  6.7978
-0.0572035  -3.91096  6.90381
8.11084e-16  -3.23835  7.30559
8.18711e-16  -3.05453  7.37429
-0.0572035  -3.5675  7.0874
-0.0653212  -3.38852  7.16443
8.27748e-16  -2.87598  7.45569
-0.0653212  -2.66997  7.46206
-0.0572035  -2.48895  7.53415
8.6564e-16  -1.75087  7.79699
8.69139e-16  -1.55719  7.82851
-0.0572035  -2.11627  7.6472
-0.0653212  -1.9257  7.68783
8.74135e-16  -1.36618  7.87351
5.66694e-16  4.6263  5.10433
-0.0653212  -1.16289  7.83957
-0.0572035  -0.971283  7.87495
8.86929e-16  -0.196113  7.98875
8.86167e-16  -8.86167e-16  7.98188
-0.0572035  -0.583707  7.91313
5.13622e-16  5.10433  4.6263
-0.0653212  -0.388878  7.9158
8.86929e-16  0.196113  7.98875
-0.0653212  0.388878  7.9158
-0.0572035  0.583707  7.91313
8.74135e-16  1.36618  7.87351
8.69139e-16  1.55719  7.82851
-0.0572035  0.971283  7.87495
-0.0653212  1.16289  7.83957
8.6564e-16  1.75087  7.79699
-0.0653212  1.9257  7.68783
-0.0572035  2.11627  7.6472
8.27748e-16  2.87598  7.45569
8.18711e-16  3.05453  7.37429
-0.0572035  2.48895  7.53415
-0.0653212  2.66997  7.46206
8.11084e-16  3.23835  7.30559
-2.10243  -5.45101  1.271
-0.0653212  3.38852  7.16443
-0.0572035  3.5675  7.0874
7.49551e-16  4.27525  6.75136
7.36821e-16  4.43449  6.63669
-2.24826  -5.33745  1.00129
-0.0572035  3.91096  6.90381
-0.0653212  4.07444  6.7978
7.25358e-16  4.60137  6.53345
-0.0653212  4.72112  6.3657
-5.50442e-16  1.2419  -4.95794
-4.64588e-16  1.49729  -4.18464
-4.72185e-16  1.29015  -4.25307
-5.40162e-16  -0.479195  -4.86535
-0.0572035  4.88163  6.25523
6.4255e-16  5.51023  5.78757
6.26614e-16  5.64404  5.64404
-0.0572035  5.18268  6.00817
-0.0653212  5.32234  5.87229
6.11758e-16  5.78757  5.51023
-0.0653212  5.87229  5.32234
-0.0572035  6.00817  5.18268
5.10855e-16  6.53345  4.60137
4.92328e-16  6.63669  4.43449
-0.0572035  6.25523  4.88163
-5.35044e-16  3.5742  -4.81925
-4.57714e-16  3.38343  -4.12272