VARIABLES = X Y Z
ZONE N =4, E =2, DATAPACKING = POINT, ZONETYPE = FETRIANGLE
0  0  0
1  0  0
0  -5  0
1  -5  0
2  1  3
2  3  4
VARIABLES = X Y Z
ZONE N =4, E =2, DATAPACKING = POINT, ZONETYPE = FETRIANGLE
0  0  15
1  0  15
0  -5  15
1  -5  15
2  1  3
2  3  4
VARIABLES = X Y Z
ZONE N =4, E =2, DATAPACKING = POINT, ZONETYPE = FETRIANGLE
0  0  0
0  0  15
1  0  0
1  0  15
3  2  1
3  4  2
VARIABLES = X Y Z
ZONE N =4, E =2, DATAPACKING = POINT, ZONETYPE = FETRIANGLE
0  -5  0
0  -5  15
1  -5  0
1  -5  15
3  2  1
3  4  2
VARIABLES = X Y Z
ZONE N =4, E =2, DATAPACKING = POINT, ZONETYPE = FETRIANGLE
0  0  0
0  -5  0
0  0  15
0  -5  15
4  2  1
4  1  3
VARIABLES = X Y Z
ZONE N =4, E =2, DATAPACKING = POINT, ZONETYPE = FETRIANGLE
1  0  0
1  -5  0
1  0  15
1  -5  15
4  2  1
4  1  3
VARIABLES = X Y Z
ZONE N =4, E =2, DATAPACKING = POINT, ZONETYPE = FETRIANGLE
-5  0  0
-5  1  0
5  0  0
5  1  0
4  2  1
4  1  3
VARIABLES = X Y Z
ZONE N =4, E =2, DATAPACKING = POINT, ZONETYPE = FETRIANGLE
-5  0  1
-5  1  1
5  0  1
5  1  1
4  2  1
4  1  3
VARIABLES = X Y Z
ZONE N =4, E =2, DATAPACKING = POINT, ZONETYPE = FETRIANGLE
-5  0  0
-5  0  1
-5  1  0
-5  1  1
2  1  3
2  3  4
VARIABLES = X Y Z
ZONE N =4, E =2, DATAPACKING = POINT, ZONETYPE = FETRIANGLE
5  0  0
5  0  1
5  1  0
5  1  1
2  1  3
2  3  4
VARIABLES = X Y Z
ZONE N =4, E =2, DATAPACKING = POINT, ZONETYPE = FETRIANGLE
-5  0  0
5  0  0
-5  0  1
5  0  1
4  2  1
4  1  3
VARIABLES = X Y Z
ZONE N =4, E =2, DATAPACKING = POINT, ZONETYPE = FETRIANGLE
-5  1  0
5  1  0
-5  1  1
5  1  1
4  2  1
4  1  3
VARIABLES = X Y Z
ZONE N =4, E =2, DATAPACKING = POINT, ZONETYPE = FETRIANGLE
5  0  0
5  1  0
15  0  0
15  1  0
4  2  1
4  1  3
VARIABLES = X Y Z
ZONE N =4, E =2, DATAPACKING = POINT, ZONETYPE = FETRIANGLE
5  0  1
5  1  1
15  0  1
15  1  1
4  2  1
4  1  3
VARIABLES = X Y Z
ZONE N =4, E =2, DATAPACKING = POINT, ZONETYPE = FETRIANGLE
5  0  0
5  0  1
5  1  0
5  1  1
2  1  3
2  3  4
VARIABLES = X Y Z
ZONE N =4, E =2, DATAPACKING = POINT, ZONETYPE = FETRIANGLE
15  0  0
15  0  1
15  1  0
15  1  1
2  1  3
2  3  4
VARIABLES = X Y Z
ZONE N =4, E =2, DATAPACKING = POINT, ZONETYPE = FETRIANGLE
5  0  0
15  0  0
5  0  1
15  0  1
4  2  1
4  1  3
VARIABLES = X Y Z
ZONE N =4, E =2, DATAPACKING = POINT, ZONETYPE = FETRIANGLE
5  1  0
15  1  0
5  1  1
15  1  1
4  2  1
4  1  3
VARIABLES = X Y Z
ZONE N =4, E =2, DATAPACKING = POINT, ZONETYPE = FETRIANGLE
0  0  1
0  1  1
1  0  1
1  1  1
4  2  1
4  1  3
VARIABLES = X Y Z
ZONE N =4, E =2, DATAPACKING = POINT, ZONETYPE = FETRIANGLE
0  0  4
0  1  4
1  0  4
1  1  4
4  2  1
4  1  3
VARIABLES = X Y Z
ZONE N =4, E =2, DATAPACKING = POINT, ZONETYPE = FETRIANGLE
0  0  1
0  0  4
0  1  1
0  1  4
2  1  3
2  3  4
VARIABLES = X Y Z
ZONE N =4, E =2, DATAPACKING = POINT, ZONETYPE = FETRIANGLE
1  0  1
1  0  4
1  1  1
1  1  4
2  1  3
2  3  4
VARIABLES = X Y Z
ZONE N =4, E =2, DATAPACKING = POINT, ZONETYPE = FETRIANGLE
0  0  1
1  0  1
0  0  4
1  0  4
4  2  1
4  1  3
VARIABLES = X Y Z
ZONE N =4, E =2, DATAPACKING = POINT, ZONETYPE = FETRIANGLE
0  1  1
1  1  1
0  1  4
1  1  4
4  2  1
4  1  3
VARIABLES = X Y Z
ZONE N =195, E =360, DATAPACKING = POINT, ZONETYPE = FETRIANGLE
0  2  1
0  2  1
0  0  1
-5.86154e-17  0.0290582  1.23932
-1.13824e-16  0.114544  1.46472
-1.62418e-16  0.251489  1.66312
-2.01573e-16  0.431935  1.82298
-2.29013e-16  0.645395  1.93502
-2.43144e-16  0.879463  1.99271
-2.43144e-16  1.12054  1.99271
-2.29013e-16  1.3546  1.93502
-2.01573e-16  1.56806  1.82298
-1.62418e-16  1.74851  1.66312
-1.13824e-16  1.88546  1.46472
-5.86154e-17  1.97094  1.23932
0  0  1
-5.86154e-17  0.0290582  1.23932
-1.13824e-16  0.114544  1.46472
-1.62418e-16  0.251489  1.66312
-2.01573e-16  0.431935  1.82298
-2.29013e-16  0.645395  1.93502
-2.43144e-16  0.879463  1.99271
-2.43144e-16  1.12054  1.99271
-2.29013e-16  1.3546  1.93502
-2.01573e-16  1.56806  1.82298
-1.62418e-16  1.74851  1.66312
-1.13824e-16  1.88546  1.46472
-5.86154e-17  1.97094  1.23932
0.0508625  0.0489435  1.3048
0.147076  0.0489435  1.27177
0.227351  0.0489435  1.20929
0.28299  0.0489435  1.12413
0.190854  0.190983  1.55594
0.307962  0.0489435  1.02552
0.361025  0.190983  1.46385
0.299561  0.0489435  0.924141
0.492074  0.190983  1.32149
0.13316  0.412215  1.79798
0.258699  0.0489435  0.830984
0.569799  0.190983  1.14429
0.38505  0.412215  1.71151
0.189802  0.0489435  0.756142
0.585778  0.190983  0.951461
0.595213  0.412215  1.54793
0.100338  0.0489435  0.707726
0.538278  0.190983  0.763889
0.740876  0.412215  1.32498
3.78437e-17  0.0489435  0.690983
0.308808  0.690983  1.89953
0.432448  0.190983  0.601904
0.806254  0.412215  1.06681
-0.100338  0.0489435  0.707726
0.584151  0.690983  1.75052
0.279755  0.190983  0.483058
0.784261  0.412215  0.801398
-0.189802  0.0489435  0.756142
0.796193  0.690983  1.52018
0.0967463  0.190983  0.420231
0.164595  1  1.98636
0.677282  0.412215  0.55751
-0.258699  0.0489435  0.830984
0.921954  0.690983  1.23347
-0.0967463  0.190983  0.420231
0.475947  1  1.87947
0.496909  0.412215  0.361572
-0.299561  0.0489435  0.924141
0.947808  0.690983  0.921462
-0.279755  0.190983  0.483058
0.735724  1  1.67728
0.262687  0.412215  0.234818
-0.307962  0.0489435  1.02552
0.870952  0.690983  0.617965
-0.432448  0.190983  0.601904
0.915773  1  1.4017
9.9076e-17  0.412215  0.190983
0.308808  1.30902  1.89953
-0.28299  0.0489435  1.12413
0.699715  0.690983  0.355867
-0.538278  0.190983  0.763889
0.996584  1  1.08258
-0.262687  0.412215  0.234818
0.584151  1.30902  1.75052
-0.227351  0.0489435  1.20929
0.452653  0.690983  0.163571
-0.585778  0.190983  0.951461
0.9694  1  0.754515
-0.496909  0.412215  0.361572
0.796193  1.30902  1.52018
-0.147076  0.0489435  1.27177
0.156539  0.690983  0.0619147
0.13316  1.58779  1.79798
-0.569799  0.190983  1.14429
0.837166  1  0.453052
-0.677282  0.412215  0.55751
0.921954  1.30902  1.23347
-0.0508625  0.0489435  1.3048
-0.156539  0.690983  0.0619147
0.38505  1.58779  1.71151
-0.492074  0.190983  1.32149
0.614213  1  0.210859
-0.784261  0.412215  0.801398
0.947808  1.30902  0.921462
-0.452653  0.690983  0.163571
0.595213  1.58779  1.54793
-0.361025  0.190983  1.46385
0.324699  1  0.0541828
-0.806254  0.412215  1.06681
0.870952  1.30902  0.617965
-0.699715  0.690983  0.355867
0.740876  1.58779  1.32498
-0.190854  0.190983  1.55594
1.22465e-16  1  0
0.190854  1.80902  1.55594
-0.740876  0.412215  1.32498
0.699715  1.30902  0.355867
-0.870952  0.690983  0.617965
0.806254  1.58779  1.06681
-0.324699  1  0.0541828
0.361025  1.80902  1.46385
-0.595213  0.412215  1.54793
0.452653  1.30902  0.163571
-0.947808  0.690983  0.921462
0.784261  1.58779  0.801398
-0.614213  1  0.210859
0.492074  1.80902  1.32149
-0.38505  0.412215  1.71151
0.156539  1.30902  0.0619147
0.0508625  1.95106  1.3048
-0.921954  0.690983  1.23347
0.677282  1.58779  0.55751
-0.837166  1  0.453052
0.569799  1.80902  1.14429
-0.13316  0.412215  1.79798
-0.156539  1.30902  0.0619147
0.147076  1.95106  1.27177
-0.796193  0.690983  1.52018
0.496909  1.58779  0.361572
-0.9694  1  0.754515
0.585778  1.80902  0.951461
-0.452653  1.30902  0.163571
0.227351  1.95106  1.20929
-0.584151  0.690983  1.75052
0.262687  1.58779  0.234818
-0.996584  1  1.08258
0.538278  1.80902  0.763889
-0.699715  1.30902  0.355867
0.28299  1.95106  1.12413
-0.308808  0.690983  1.89953
9.9076e-17  1.58779  0.190983
-0.915773  1  1.4017
0.432448  1.80902  0.601904
-0.870952  1.30902  0.617965
0.307962  1.95106  1.02552
-0.262687  1.58779  0.234818
-0.735724  1  1.67728
0.279755  1.80902  0.483058
-0.947808  1.30902  0.921462
0.299561  1.95106  0.924141
-0.496909  1.58779  0.361572
-0.475947  1  1.87947
0.0967463  1.80902  0.420231
-0.921954  1.30902  1.23347
0.258699  1.95106  0.830984
-0.677282  1.58779  0.55751
-0.164595  1  1.98636
-0.0967463  1.80902  0.420231
-0.796193  1.30902  1.52018
0.189802  1.95106  0.756142
-0.784261  1.58779  0.801398
-0.279755  1.80902  0.483058
-0.584151  1.30902  1.75052
0.100338  1.95106  0.707726
-0.806254  1.58779  1.06681
-0.432448  1.80902  0.601904
-0.308808  1.30902  1.89953
3.78437e-17  1.95106  0.690983
-0.740876  1.58779  1.32498
-0.538278  1.80902  0.763889
-0.100338  1.95106  0.707726
-0.595213  1.58779  1.54793
-0.585778  1.80902  0.951461
-0.189802  1.95106  0.756142
-0.38505  1.58779  1.71151
-0.569799  1.80902  1.14429
-0.258699  1.95106  0.830984
-0.13316  1.58779  1.79798
-0.492074  1.80902  1.32149
-0.299561  1.95106  0.924141
-0.361025  1.80902  1.46385
-0.307962  1.95106  1.02552
-0.190854  1.80902  1.55594
-0.28299  1.95106  1.12413
-0.227351  1.95106  1.20929
-0.147076  1.95106  1.27177
-0.0508625  1.95106  1.3048
29  5  4
30  4  3
30  29  4
30  5  29
31  30  3
32  31  3
33  6  5
33  5  30
34  32  3
35  30  31
35  33  30
36  34  3
37  31  32
37  35  31
38  7  6
38  8  7
39  36  3
40  37  32
40  32  34
41  6  33
41  8  38
41  38  6
41  33  35
42  39  3
43  34  36
43  40  34
44  35  37
44  41  35
45  42  3
46  36  39
46  43  36
47  37  40
47  44  37
48  3  16
48  45  3
49  9  8
49  8  41
50  46  39
50  39  42
51  47  40
51  40  43
52  48  16
53  49  41
53  41  44
54  42  45
54  50  42
55  43  46
55  51  43
56  52  16
57  44  47
57  53  44
58  45  48
58  54  45
59  10  9
60  55  46
60  46  50
61  56  16
62  57  47
62  47  51
63  58  48
63  48  52
64  49  53
64  59  9
64  10  59
64  9  49
65  50  54
65  60  50
66  61  16
67  62  51
67  51  55
68  63  52
68  52  56
69  53  57
69  64  53
70  54  58
70  65  54
71  66  16
72  67  55
72  55  60
73  68  56
73  56  61
74  57  62
74  69  57
75  70  58
75  58  63
76  11  10
76  10  64
77  71  16
78  72  60
78  60  65
79  61  66
79  73  61
80  62  67
80  74  62
81  63  68
81  75  63
82  64  69
82  76  64
83  77  16
84  78  65
84  65  70
85  79  66
85  66  71
86  80  67
86  67  72
87  68  73
87  81  68
88  82  69
88  69  74
89  16  17
89  83  16
90  84  70
90  70  75
91  12  11
91  13  12
92  85  71
92  71  77
93  86  72
93  72  78
94  73  79
94  87  73
95  74  80
95  88  74
96  18  89
96  17  18
96  89  17
97  75  81
97  90  75
98  13  91
98  76  82
98  11  76
98  91  11
99  92  77
99  77  83
100  78  84
100  93  78
101  79  85
101  94  79
102  80  86
102  95  80
103  97  81
103  81  87
104  98  82
104  82  88
105  83  89
105  99  83
106  84  90
106  100  84
107  85  92
107  101  85
108  102  86
108  86  93
109  87  94
109  103  87
110  88  95
110  104  88
111  89  18
111  18  19
111  105  89
112  90  97
112  106  90
113  14  13
113  13  98
114  92  99
114  107  92
115  93  100
115  108  93
116  109  94
116  94  101
117  95  102
117  110  95
118  97  103
118  112  97
119  113  98
119  98  104
120  99  105
120  114  99
121  115  100
121  100  106
122  116  101
122  101  107
123  117  102
123  102  108
124  118  103
124  103  109
125  119  104
125  104  110
126  120  105
126  111  19
126  105  111
127  106  112
127  121  106
128  15  14
129  107  114
129  122  107
130  108  115
130  123  108
131  109  116
131  124  109
132  110  117
132  125  110
133  19  20
133  20  21
133  126  19
133  21  126
134  127  112
134  112  118
135  128  14
135  1  15
135  15  128
135  14  113
135  113  119
136  114  120
136  129  114
137  130  115
137  115  121
138  131  116
138  116  122
139  132  117
139  117  123
140  134  118
140  118  124
141  135  119
141  119  125
141  1  135
142  120  126
142  136  120
143  121  127
143  137  121
144  122  129
144  138  122
145  139  123
145  123  130
146  124  131
146  140  124
147  1  141
147  125  132
147  141  125
148  21  22
148  126  21
148  142  126
149  127  134
149  143  127
150  129  136
150  144  129
151  145  130
151  130  137
152  131  138
152  146  131
153  147  132
153  132  139
153  1  147
154  149  134
154  134  140
155  150  136
155  136  142
156  151  137
156  137  143
157  152  138
157  138  144
158  1  153
158  153  139
158  139  145
159  140  146
159  154  140
160  148  22
160  142  148
160  155  142
161  143  149
161  156  143
162  157  144
162  144  150
163  1  158
163  158  145
163  145  151
164  146  152
164  159  146
165  22  23
165  160  22
165  23  160
166  161  149
166  149  154
167  150  155
167  162  150
168  1  163
168  163  151
168  151  156
169  152  157
169  164  152
170  154  159
170  166  154
171  155  160
171  167  155
172  1  168
172  168  156
172  156  161
173  157  162
173  169  157
174  159  164
174  170  159
175  23  24
175  160  23
175  171  160
176  2  1
176  161  166
176  1  172
176  172  161
177  173  162
177  162  167
178  174  164
178  164  169
179  166  170
179  176  166
179  2  176
180  167  171
180  177  167
181  169  173
181  178  169
182  179  170
182  170  174
182  2  179
183  180  171
183  175  24
183  171  175
184  181  173
184  173  177
185  182  174
185  174  178
185  2  182
186  24  25
186  25  26
186  183  24
186  26  183
187  177  180
187  184  177
188  178  181
188  2  185
188  185  178
189  180  183
189  187  180
190  188  181
190  2  188
190  181  184
191  189  183
191  26  27
191  183  26
192  184  187
192  190  184
192  2  190
193  187  189
193  192  187
193  2  192
194  2  193
194  28  2
194  189  191
194  191  27
194  193  189
195  27  28
195  194  27
195  28  194
VARIABLES = X Y Z
ZONE N =54, E =52, DATAPACKING = POINT, ZONETYPE = FETRIANGLE
7.5  -1.22465e-16  5
7.48547  0.119658  5
7.44273  0.232362  5
7.37426  0.331561  5
7.28403  0.411492  5
7.1773  0.467508  5
7.06027  0.496354  5
6.93973  0.496354  5
6.8227  0.467508  5
6.71597  0.411492  5
6.62574  0.331561  5
6.55727  0.232362  5
6.51453  0.119658  5
6.5  5.05322e-16  5
6.51453  -0.119658  5
6.55727  -0.232362  5
6.62574  -0.331561  5
6.71597  -0.411492  5
6.8227  -0.467508  5
6.93973  -0.496354  5
7.06027  -0.496354  5
7.1773  -0.467508  5
7.28403  -0.411492  5
7.37426  -0.331561  5
7.44273  -0.232362  5
7.48547  -0.119658  5
7.5  -1.22465e-16  5
7.5  -1.22465e-16  0
7.48547  0.119658  0
7.44273  0.232362  0
7.37426  0.331561  0
7.28403  0.411492  0
7.1773  0.467508  0
7.06027  0.496354  0
6.93973  0.496354  0
6.8227  0.467508  0
6.71597  0.411492  0
6.62574  0.331561  0
6.55727  0.232362  0
6.51453  0.119658  0
6.5  5.05322e-16  0
6.51453  -0.119658  0
6.55727  -0.232362  0
6.62574  -0.331561  0
6.71597  -0.411492  0
6.8227  -0.467508  0
6.93973  -0.496354  0
7.06027  -0.496354  0
7.1773  -0.467508  0
7.28403  -0.411492  0
7.37426  -0.331561  0
7.44273  -0.232362  0
7.48547  -0.119658  0
7.5  -1.22465e-16  0
2  1  28
2  28  29
3  29  30
3  30  31
3  2  29
4  3  31
5  31  32
5  4  31
6  32  33
6  33  34
6  5  32
7  6  34
8  34  35
8  7  34
9  35  36
9  8  35
10  36  37
10  9  36
11  37  38
11  38  39
11  10  37
12  11  39
12  39  40
13  12  40
14  13  40
14  40  41
14  41  42
15  14  42
16  15  42
16  42  43
17  16  43
17  43  44
18  17  44
18  44  45
19  18  45
19  45  46
20  19  46
20  46  47
20  47  48
21  20  48
22  21  48
22  48  49
23  22  49
23  49  50
23  50  51
24  23  51
24  51  52
25  24  52
26  52  53
26  53  54
26  25  52
27  26  54
VARIABLES = X Y Z
ZONE N =26, E =24, DATAPACKING = POINT, ZONETYPE = FETRIANGLE
7.5  -1.22465e-16  5
7.48547  0.119658  5
7.44273  0.232362  5
7.37426  0.331561  5
7.28403  0.411492  5
7.1773  0.467508  5
7.06027  0.496354  5
6.93973  0.496354  5
6.8227  0.467508  5
6.71597  0.411492  5
6.62574  0.331561  5
6.55727  0.232362  5
6.51453  0.119658  5
6.5  5.05322e-16  5
6.51453  -0.119658  5
6.55727  -0.232362  5
6.62574  -0.331561  5
6.71597  -0.411492  5
6.8227  -0.467508  5
6.93973  -0.496354  5
7.06027  -0.496354  5
7.1773  -0.467508  5
7.28403  -0.411492  5
7.37426  -0.331561  5
7.44273  -0.232362  5
7.48547  -0.119658  5
25  23  24
26  23  25
3  1  2
4  5  6
4  6  7
4  7  8
4  8  9
4  9  10
4  10  11
4  11  12
4  12  13
4  13  14
4  14  15
4  15  16
4  16  17
4  17  18
4  18  19
4  19  20
4  20  21
4  21  22
4  22  23
4  26  1
4  23  26
4  1  3
VARIABLES = X Y Z
ZONE N =26, E =24, DATAPACKING = POINT, ZONETYPE = FETRIANGLE
7.5  -1.22465e-16  0
7.48547  0.119658  0
7.44273  0.232362  0
7.37426  0.331561  0
7.28403  0.411492  0
7.1773  0.467508  0
7.06027  0.496354  0
6.93973  0.496354  0
6.8227  0.467508  0
6.71597  0.411492  0
6.62574  0.331561  0
6.55727  0.232362  0
6.51453  0.119658  0
6.5  5.05322e-16  0
6.51453  -0.119658  0
6.55727  -0.232362  0
6.62574  -0.331561  0
6.71597  -0.411492  0
6.8227  -0.467508  0
6.93973  -0.496354  0
7.06027  -0.496354  0
7.1773  -0.467508  0
7.28403  -0.411492  0
7.37426  -0.331561  0
7.44273  -0.232362  0
7.48547  -0.119658  0
25  23  24
26  23  25
3  1  2
4  5  6
4  6  7
4  7  8
4  8  9
4  9  10
4  10  11
4  11  12
4  12  13
4  13  14
4  14  15
4  15  16
4  16  17
4  17  18
4  18  19
4  19  20
4  20  21
4  21  22
4  22  23
4  26  1
4  23  26
4  1  3
