VARIABLES = X Y Z
ZONE N =54, E =52, DATAPACKING = POINT, ZONETYPE = FETRIANGLE
0  0  2
15  0  2
15  0.478631  1.94188
15  0.929446  1.77091
15  1.32625  1.49702
15  1.64597  1.13613
15  1.87003  0.70921
15  1.98542  0.241073
15  1.98542  -0.241073
15  1.87003  -0.70921
15  1.64597  -1.13613
15  1.32625  -1.49702
15  0.929446  -1.77091
15  0.478631  -1.94188
15  2.02129e-15  -2
15  -0.478631  -1.94188
15  -0.929446  -1.77091
15  -1.32625  -1.49702
15  -1.64597  -1.13613
15  -1.87003  -0.70921
15  -1.98542  -0.241073
15  -1.98542  0.241073
15  -1.87003  0.70921
15  -1.64597  1.13613
15  -1.32625  1.49702
15  -0.929446  1.77091
15  -0.478631  1.94188
15  0  2
0  0  2
0  0.478631  1.94188
0  0.929446  1.77091
0  1.32625  1.49702
0  1.64597  1.13613
0  1.87003  0.70921
0  1.98542  0.241073
0  1.98542  -0.241073
0  1.87003  -0.70921
0  1.64597  -1.13613
0  1.32625  -1.49702
0  0.929446  -1.77091
0  0.478631  -1.94188
0  2.02129e-15  -2
0  -0.478631  -1.94188
0  -0.929446  -1.77091
0  -1.32625  -1.49702
0  -1.64597  -1.13613
0  -1.87003  -0.70921
0  -1.98542  -0.241073
0  -1.98542  0.241073
0  -1.87003  0.70921
0  -1.64597  1.13613
0  -1.32625  1.49702
0  -0.929446  1.77091
0  -0.478631  1.94188
30  1  2
30  2  3
31  3  4
31  30  3
32  4  5
32  31  4
33  5  6
33  32  5
34  6  7
34  33  6
35  7  8
35  34  7
36  8  9
36  35  8
37  9  10
37  36  9
38  10  11
38  11  12
38  37  10
39  38  12
40  39  12
40  12  13
41  40  13
41  13  14
41  14  15
42  41  15
43  42  15
43  15  16
44  16  17
44  43  16
45  17  18
45  18  19
45  44  17
46  45  19
47  19  20
47  20  21
47  46  19
48  47  21
49  48  21
49  21  22
50  22  23
50  49  22
51  23  24
51  50  23
52  24  25
52  51  24
53  25  26
53  52  25
54  26  27
54  53  26
29  27  28
29  54  27
VARIABLES = X Y Z
ZONE N =26, E =24, DATAPACKING = POINT, ZONETYPE = FETRIANGLE
0  0  2
0  0.478631  1.94188
0  0.929446  1.77091
0  1.32625  1.49702
0  1.64597  1.13613
0  1.87003  0.70921
0  1.98542  0.241073
0  1.98542  -0.241073
0  1.87003  -0.70921
0  1.64597  -1.13613
0  1.32625  -1.49702
0  0.929446  -1.77091
0  0.478631  -1.94188
0  2.02129e-15  -2
0  -0.478631  -1.94188
0  -0.929446  -1.77091
0  -1.32625  -1.49702
0  -1.64597  -1.13613
0  -1.87003  -0.70921
0  -1.98542  -0.241073
0  -1.98542  0.241073
0  -1.87003  0.70921
0  -1.64597  1.13613
0  -1.32625  1.49702
0  -0.929446  1.77091
0  -0.478631  1.94188
12  9  10
12  10  11
13  2  3
13  3  4
13  4  5
13  5  6
13  6  7
13  7  8
13  8  9
13  9  12
19  20  21
19  21  22
18  22  23
18  19  22
17  1  2
17  13  14
17  14  15
17  15  16
17  23  24
17  24  25
17  25  26
17  26  1
17  2  13
17  18  23
VARIABLES = X Y Z
ZONE N =26, E =24, DATAPACKING = POINT, ZONETYPE = FETRIANGLE
0  0  2
0  0.478631  1.94188
0  0.929446  1.77091
0  1.32625  1.49702
0  1.64597  1.13613
0  1.87003  0.70921
0  1.98542  0.241073
0  1.98542  -0.241073
0  1.87003  -0.70921
0  1.64597  -1.13613
0  1.32625  -1.49702
0  0.929446  -1.77091
0  0.478631  -1.94188
0  2.02129e-15  -2
0  -0.478631  -1.94188
0  -0.929446  -1.77091
0  -1.32625  -1.49702
0  -1.64597  -1.13613
0  -1.87003  -0.70921
0  -1.98542  -0.241073
0  -1.98542  0.241073
0  -1.87003  0.70921
0  -1.64597  1.13613
0  -1.32625  1.49702
0  -0.929446  1.77091
0  -0.478631  1.94188
12  9  10
12  10  11
13  2  3
13  3  4
13  4  5
13  5  6
13  6  7
13  7  8
13  8  9
13  9  12
19  20  21
19  21  22
18  22  23
18  19  22
17  1  2
17  13  14
17  14  15
17  15  16
17  23  24
17  24  25
17  25  26
17  26  1
17  2  13
17  18  23
VARIABLES = X Y Z
ZONE N =1442, E =2862, DATAPACKING = POINT, ZONETYPE = FETRIANGLE
0  0  0
0  0  0
0  0  0
-3.62568e-32  -1.33333  -3.26572e-16
-4.83424e-32  -1.77778  -4.3543e-16
-5.43686e-32  -1.99939  -4.89709e-16
-2.43056  -1.30556  -3.19769e-16
-5.93056  -0.305556  -7.48395e-17
-6.58681  -0.118056  -2.89153e-17
-6.99993  -2.03579e-05  -4.98624e-21
-3.7066  1.00792e-31  0
0  0  0
-3.62568e-32  -1.33333  -3.26572e-16
-4.83424e-32  -1.77778  -4.3543e-16
-5.43686e-32  -1.99939  -4.89709e-16
-2.43056  -1.30556  -3.19769e-16
-5.93056  -0.305556  -7.48395e-17
-6.58681  -0.118056  -2.89153e-17
-6.99993  -2.03579e-05  -4.98624e-21
-3.7066  1.00792e-31  0
-6.99993  -1.88082e-05  7.79062e-06
-6.58681  -0.109069  0.0451779
-6.99993  -1.43952e-05  1.43952e-05
-6.58681  -0.0834779  0.0834779
-6.99993  -7.79062e-06  1.88082e-05
-6.58681  -0.0451779  0.109069
-6.58681  -7.44389e-16  0.118056
-6.99993  -7.7715e-16  2.03579e-05
-6.99993  7.79062e-06  1.88082e-05
-6.58681  0.0451779  0.109069
-6.99993  1.43952e-05  1.43952e-05
-6.58681  0.0834779  0.0834779
-6.58681  0.109069  0.0451779
-6.99993  1.88082e-05  7.79062e-06
-6.99993  2.03579e-05  1.5543e-15
-6.58681  0.118056  1.47702e-15
-6.99993  1.88082e-05  -7.79062e-06
-6.58681  0.109069  -0.0451779
-6.99993  1.43952e-05  -1.43952e-05
-6.58681  0.0834779  -0.0834779
-6.58681  0.0451779  -0.109069
-6.99993  7.79062e-06  -1.88082e-05
-6.99993  7.77153e-16  -2.03579e-05
-6.58681  7.57496e-16  -0.118056
-6.99993  -7.79062e-06  -1.88082e-05
-6.58681  -0.0451779  -0.109069
-6.58681  -0.0834779  -0.0834779
-6.99993  -1.43952e-05  -1.43952e-05
-6.99993  -1.88082e-05  -7.79062e-06
-6.58681  -0.109069  -0.0451779
-3.7066  -1.5748e-16  3.13247e-17
-3.7066  -2.90985e-16  1.2053e-16
-3.7066  -3.8019e-16  2.54035e-16
-3.7066  -4.11515e-16  4.11515e-16
-3.7066  -3.8019e-16  5.68995e-16
-3.7066  -2.90985e-16  7.025e-16
-3.7066  -1.5748e-16  7.91705e-16
-3.7066  -5.0396e-32  8.2303e-16
-3.7066  1.5748e-16  7.91705e-16
-3.7066  2.90985e-16  7.025e-16
-3.7066  3.8019e-16  5.68995e-16
-3.7066  4.11515e-16  4.11515e-16
-3.7066  3.8019e-16  2.54035e-16
-3.7066  2.90985e-16  1.2053e-16
-3.7066  1.5748e-16  3.13247e-17
6.60899e-17  -1.43715  0.595285
-6.60899e-17  -1.43715  -0.595285
-1.21421  -1.62132  0.322501
-2.43056  -1.20618  0.499614
-1.21421  -1.52725  0.632608
-1.21421  -1.37449  0.918404
-2.43056  -0.923167  0.923167
-1.21421  -1.16891  1.16891
-1.21421  -0.918404  1.37449
-2.43056  -0.499614  1.20618
-1.21421  -0.632608  1.52725
-1.21421  -0.322501  1.62132
-2.43056  -4.14792e-16  1.30556
-1.21421  -3.18333e-16  1.65308
-1.21421  0.322501  1.62132
-2.43056  0.499614  1.20618
-1.21421  0.632608  1.52725
-1.21421  0.918404  1.37449
-2.43056  0.923167  0.923167
-1.21421  1.16891  1.16891
-1.21421  1.37449  0.918404
-2.43056  1.20618  0.499614
-1.21421  1.52725  0.632608
-1.21421  1.62132  0.322501
-2.43056  1.30556  6.99576e-16
-1.21421  1.65308  4.72052e-16
-1.21421  1.62132  -0.322501
-2.43056  1.20618  -0.499614
-1.21421  1.52725  -0.632608
-1.21421  1.37449  -0.918404
-2.43056  0.923167  -0.923167
-1.21421  1.16891  -1.16891
-1.21421  0.918404  -1.37449
-2.43056  0.499614  -1.20618
-1.21421  0.632608  -1.52725
-1.21421  0.322501  -1.62132
-2.43056  5.59737e-16  -1.30556
-1.21421  5.01862e-16  -1.65308
-1.21421  -0.322501  -1.62132
-2.43056  -0.499614  -1.20618
-1.21421  -0.632608  -1.52725
-1.21421  -0.918404  -1.37449
-2.43056  -0.923167  -0.923167
-1.21421  -1.16891  -1.16891
-1.21421  -1.37449  -0.918404
-2.43056  -1.20618  -0.499614
-1.21421  -1.52725  -0.632608
-1.21421  -1.62132  -0.322501
-4.18056  -0.744236  0.308273
-6.25868  -0.17611  0.117673
-6.25868  -0.149769  0.149769
-6.25868  -0.117673  0.17611
-6.25868  -0.0810545  0.195683
-4.18056  -0.744236  -0.308273
-6.36806  -0.0235672  0.179011
-6.25868  -0.0413212  0.207736
-6.25868  -7.18368e-16  0.211806
-6.36806  0.0235672  0.179011
-6.36806  0.0690956  0.166812
-6.36806  0.0690956  -0.166812
-6.36806  0.0235672  -0.179011
-6.25868  7.41883e-16  -0.211806
-6.36806  -0.0235672  -0.179011
-6.25868  -0.0413212  -0.207736
-6.25868  -0.0810545  -0.195683
-6.25868  -0.117673  -0.17611
-6.25868  -0.149769  -0.149769
-6.25868  -0.17611  -0.117673
6.13692e-17  -1.33449  0.552765
7.55958e-17  -1.27389  0.680906
9.59477e-17  -1.2934  0.86422
8.90943e-17  -1.20101  0.80249
1.01735e-16  -1.11657  0.916346
1.22118e-16  -1.09994  1.09994
1.13396e-16  -1.02138  1.02138
1.53853e-16  0.92595  1.38578
1.39564e-16  1.25708  1.25708
1.82349e-16  0.680326  1.64245
1.70952e-16  0.637806  1.5398
1.30841e-16  1.17851  1.17851
-1.01735e-16  -1.11657  -0.916346
-9.59477e-17  -1.2934  -0.86422
-1.22118e-16  -1.09994  -1.09994
-1.13396e-16  -1.02138  -1.02138
-8.90943e-17  -1.20101  -0.80249
-0.606031  -1.81805  0.179062
-7.55958e-17  -1.27389  -0.680906
-1.53853e-16  0.92595  -1.38578
-1.39564e-16  1.25708  -1.25708
-1.30841e-16  1.17851  -1.17851
-1.82349e-16  0.680326  -1.64245
-6.13692e-17  -1.33449  -0.552765
-0.606031  -1.74818  0.530306
-0.606031  -1.68779  0.699105
-1.70952e-16  0.637806  -1.5398
-0.606031  -1.61114  0.86117
-0.606031  -1.41217  1.15894
-0.606031  -1.29178  1.29178
-0.606031  -1.15894  1.41217
-0.606031  -0.86117  1.61114
-0.606031  -0.699105  1.68779
-0.606031  -0.530306  1.74818
-0.606031  -0.179062  1.81805
-0.606031  -2.70104e-16  1.82685
-0.606031  0.179062  1.81805
-0.606031  0.530306  1.74818
-0.606031  0.699105  1.68779
-0.606031  0.86117  1.61114
-0.606031  1.15894  1.41217
-0.606031  1.29178  1.29178
-0.606031  1.41217  1.15894
-0.606031  1.61114  0.86117
-0.606031  1.68779  0.699105
-0.606031  1.74818  0.530306
-0.606031  1.81805  0.179062
-0.606031  1.82685  3.5829e-16
-0.606031  1.81805  -0.179062
-0.606031  1.74818  -0.530306
-0.606031  1.68779  -0.699105
-0.606031  1.61114  -0.86117
-0.606031  1.41217  -1.15894
-0.606031  1.29178  -1.29178
-0.606031  1.15894  -1.41217
-0.606031  0.86117  -1.61114
-0.606031  0.699105  -1.68779
-0.606031  0.530306  -1.74818
-0.606031  0.179062  -1.81805
-0.606031  4.72925e-16  -1.82685
-0.606031  -0.179062  -1.81805
-0.606031  -0.530306  -1.74818
-0.606031  -0.699105  -1.68779
-0.606031  -0.86117  -1.61114
-0.606031  -1.15894  -1.41217
-0.606031  -1.29178  -1.29178
-2.81944  -0.914998  0.767774
-0.606031  -1.41217  -1.15894
-0.606031  -1.61114  -0.86117
-0.606031  -1.68779  -0.699105
-0.606031  -1.74818  -0.530306
-0.606031  -1.81805  -0.179062
-3.01389  -0.569444  0.986307
-3.01389  -0.750922  0.856262
-3.40278  -0.787323  0.660643
-3.98611  -0.53899  0.671567
-4.18056  -0.669795  0.447543
-4.18056  -0.569614  0.569614
-3.88889  -0.444444  0.7698
-4.18056  -0.447543  0.669795
-4.18056  -0.308273  0.744236
-3.88889  -0.366851  0.809657
-4.18056  -0.157156  0.790077
-4.18056  -5.5357e-16  0.805556
-3.88889  0.871809  0.173414
-3.79167  0.793857  0.458333
-3.59722  0.972222  1.34956e-15
-5.05556  -0.513266  0.212602
-5.05556  -0.489956  0.261887
-5.05556  -0.461928  0.30865
-2.81944  -0.914998  -0.767774
-5.05556  -0.42945  0.352441
-3.01389  -0.750922  -0.856262
-3.01389  -0.569444  -0.986307
-4.18056  0.805556  1.02692e-15
-3.98611  0.795563  -0.329533
-5.4566  -0.220486  0.381893
-5.05556  -0.392837  0.392837
-3.40278  -0.787323  -0.660643
-3.88889  -0.366851  -0.809657
-4.18056  -0.308273  -0.744236
-4.18056  -0.157156  -0.790077
-6.09462  -0.215085  0.143715
-6.09462  -0.199963  0.164105
-3.98611  -0.53899  -0.671567
-4.18056  -0.669795  -0.447543
-3.88889  -0.444444  -0.7698
-4.18056  -0.447543  -0.669795
-4.18056  -0.569614  -0.569614
-6.09462  -0.182915  0.182915
-5.05556  -0.42945  -0.352441
-6.47743  0.124143  0.0829497
-5.05556  -0.461928  -0.30865
-6.31337  0.192411  0.0382729
-6.3316  0.165387  0.0954861
-5.05556  -0.489956  -0.261887
-5.05556  -0.513266  -0.212602
-6.36806  0.180556  1.51629e-15
-6.25868  0.211806  1.41564e-15
-5.4566  -0.220486  -0.381893
-5.05556  -0.392837  -0.392837
-6.29514  0.186059  -0.0770682
-6.47743  0.124143  -0.0829497
-6.09462  -0.182915  -0.182915
-6.09462  -0.199963  -0.164105
-6.09462  -0.215085  -0.143715
5.90089e-17  -1.28317  0.531505
1.53857e-16  -0.574025  1.38582
1.43596e-16  -0.86422  1.2934
1.59555e-16  -0.595285  1.43715
1.69383e-16  -0.303474  1.52567
1.78869e-16  -1.78869e-16  1.61111
1.72701e-16  -1.72701e-16  1.55556
1.65254e-16  0.616546  1.48847
1.91205e-16  -1.91205e-16  1.72222
1.97373e-16  -1.97373e-16  1.77778
7.3171e-17  1.59113  0.659066
7.55314e-17  1.64245  0.680326
-0.301944  -1.91143  0.0939023
-0.301944  -1.89302  0.280803
-0.301944  -1.80186  0.644716
-0.301944  -1.76806  0.732353
-0.301944  -1.72999  0.818225
-5.90089e-17  -1.28317  -0.531505
-1.53857e-16  -0.574025  -1.38582
-1.59555e-16  -0.595285  -1.43715
-1.69383e-16  -0.303474  -1.52567
-1.43596e-16  -0.86422  -1.2934
-0.301944  -1.53712  1.14001
-1.65254e-16  0.616546  -1.48847
-7.3171e-17  1.59113  -0.659066
-7.55314e-17  1.64245  -0.680326
-0.301944  -1.41798  1.28518
-0.301944  -1.35321  1.35321
-0.301944  -1.28518  1.41798
-0.301944  -1.14001  1.53712
-1.78869e-16  3.57739e-16  -1.61111
-1.72701e-16  3.45403e-16  -1.55556
-0.301944  -0.818225  1.72999
-0.301944  -0.732353  1.76806
-0.301944  -0.644716  1.80186
-0.301944  -0.464999  1.85638
-0.301944  -0.0939023  1.91143
-0.301944  -2.45989e-16  1.91373
-0.301944  0.0939023  1.91143
-0.301944  0.280803  1.89302
-1.91205e-16  3.8241e-16  -1.72222
-1.97373e-16  3.94746e-16  -1.77778
-0.301944  0.644716  1.80186
-0.301944  0.732353  1.76806
-0.301944  0.818225  1.72999
-0.301944  0.983854  1.64146
-0.301944  1.28518  1.41798
-0.301944  1.35321  1.35321
-0.301944  1.41798  1.28518
-0.301944  1.53712  1.14001
-0.301944  1.72999  0.818225
-0.301944  1.76806  0.732353
-0.301944  1.80186  0.644716
-0.301944  1.85638  0.464999
-0.301944  1.91143  0.0939023
-0.301944  1.91373  3.01409e-16
-0.301944  1.91143  -0.0939023
-0.301944  1.89302  -0.280803
-0.301944  1.80186  -0.644716
-0.301944  1.76806  -0.732353
-0.301944  1.72999  -0.818225
-0.301944  1.64146  -0.983854
-0.301944  1.41798  -1.28518
-0.301944  1.35321  -1.35321
-0.301944  1.28518  -1.41798
-0.301944  1.14001  -1.53712
-0.301944  0.818225  -1.72999
-0.301944  0.732353  -1.76806
-0.301944  0.644716  -1.80186
-0.301944  0.280803  -1.89302
-0.301944  0.0939023  -1.91143
-0.301944  4.58456e-16  -1.91373
-0.301944  -0.0939023  -1.91143
-0.301944  -0.280803  -1.89302
-0.301944  -0.644716  -1.80186
-0.301944  -0.732353  -1.76806
-0.301944  -0.818225  -1.72999
-0.301944  -0.983854  -1.64146
-0.301944  -1.28518  -1.41798
-0.301944  -1.35321  -1.35321
-0.301944  -1.41798  -1.28518
-0.301944  -1.53712  -1.14001
-0.301944  -1.72999  -0.818225
-0.301944  -1.76806  -0.732353
-0.301944  -1.80186  -0.644716
-0.301944  -1.85638  -0.464999
-0.301944  -1.91143  -0.0939023
-2.81944  0.33424  1.14673
-3.01389  0.946952  0.632733
-3.01389  0.805316  0.805316
-3.01389  0.258615  1.10914
-3.20833  0.211348  1.06252
-3.59722  0.372053  0.898216
-3.59722  0.1269  0.963905
-3.01389  -0.366084  1.07845
-3.5  -0.362438  0.932008
-2.81944  1.19444  7.7232e-16
-3.01389  0.946952  -0.632733
-3.01389  1.13889  8.08691e-16
-3.0787  1.12037  8.20815e-16
-3.20833  1.08333  8.45063e-16
-3.40278  0.854566  0.571003
-3.46759  0.932434  0.386227
-3.59722  0.808373  0.540138
-2.81944  0.33424  -1.14673
-3.01389  0.805316  -0.805316
-3.98611  0.430556  0.745744
-3.01389  0.258615  -1.10914
-3.46759  0.932434  -0.386227
-3.40278  0.854566  -0.571003
-4.05093  0.645463  0.541608
-4.18056  0.569614  0.569614
-3.20833  0.211348  -1.06252
-3.59722  0.372053  -0.898216
-3.59722  0.1269  -0.963905
-3.01389  -0.366084  -1.07845
-3.59722  0.808373  -0.540138
-3.72685  0.809894  -0.467593
-4.81858  0.161313  0.602027
-4.41146  0.694981  0.252952
-3.5  -0.362438  -0.932008
-4.11574  0.653782  -0.501665
-5.69358  -0.323256  0.186632
-4.08333  0.462975  -0.692891
-4.18056  0.569614  -0.569614
-4.18056  6.43004e-16  -0.805556
-4.75781  0.601991  0.219107
-4.70009  0.464653  0.464653
-4.52691  0.611931  0.353299
-4.87326  0.526231  -0.303819
-5.21962  0.508681  1.22128e-15
-5.13759  0.203633  0.491613
-5.28038  0.281809  0.402465
-5.56597  0.35483  0.204861
-5.31076  0.062997  0.47851
-5.51128  0.110088  0.410854
-5.35938  -0.0408543  0.466966
-4.52691  0.353299  -0.611931
-4.41146  0.566554  -0.475395
-4.70313  0.057196  -0.653753
-5.91233  0.155382  0.269129
-4.96441  0.0759137  -0.576622
-5.18316  0.333669  -0.397652
-5.16493  0.1357  -0.50644
-5.33811  0.237413  -0.411212
-6.29514  0.100694  0.174408
-5.12847  -0.0466041  -0.532687
-5.87587  0.10324  -0.304136
-5.65712  0.259211  -0.282879
-6.27691  0.114779  -0.171779
-5.69358  -0.323256  -0.186632
8.39543e-17  -1.13172  0.756193
1.09034e-16  -0.982093  0.982093
1.48158e-16  -0.552765  1.33449
1.60366e-16  -1.60366e-16  1.44444
1.4246e-16  -0.531505  1.28317
1.48158e-16  0.552765  1.33449
1.54259e-16  0.276378  1.38945
1.66533e-16  -1.66533e-16  1.5
1.53857e-16  0.574025  1.38582
1.62404e-16  -0.605915  1.46281
1.68103e-16  -0.627176  1.51414
1.17757e-16  1.06066  1.06066
1.13396e-16  1.02138  1.02138
1.59555e-16  0.595285  1.43715
1.22118e-16  1.09994  1.09994
1.795e-16  -0.669696  1.61679
1.82349e-16  -0.680326  1.64245
1.39564e-16  -1.25708  1.25708
-3.18874e-17  1.44393  -0.287216
2.11498e-32  1.55556  1.90501e-16
6.37296e-17  1.38582  0.574025
1.96391e-32  1.44444  1.76893e-16
-3.06841e-17  1.38945  -0.276378
-1.13396e-16  1.02138  -1.02138
6.60899e-17  1.43715  0.595285
1.2648e-16  1.13923  1.13923
6.84503e-17  1.48847  0.616546
-6.37296e-17  1.38582  -0.574025
-6.60899e-17  1.43715  -0.595285
-1.22118e-16  1.09994  -1.09994
-6.84503e-17  1.48847  -0.616546
2.19052e-32  1.61111  1.97304e-16
2.26605e-32  1.66667  2.04108e-16
7.08107e-17  1.5398  0.637806
-0.1499  -1.95658  0.0480314
-1.25646e-16  -0.756193  -1.13172
-1.4246e-16  -0.531505  -1.28317
-0.1499  -1.95187  0.143978
-1.54259e-16  -0.276378  -1.38945
-1.60366e-16  3.20731e-16  -1.44444
-0.1499  -1.88627  0.522003
-0.1499  -1.82603  0.704376
-0.1499  -1.80819  0.748977
-0.1499  -1.78927  0.793127
-0.1499  -1.70291  0.964686
-1.66533e-16  3.33067e-16  -1.5
-1.59555e-16  0.595285  -1.43715
-1.53857e-16  0.574025  -1.38582
-1.2648e-16  1.13923  -1.13923
-7.08107e-17  1.5398  -0.637806
2.34159e-32  1.72222  2.10911e-16
2.41712e-32  1.77778  2.17715e-16
-0.1499  -1.48199  1.27837
-0.1499  -1.41748  1.34955
-0.1499  -1.38393  1.38393
-0.1499  -1.34955  1.41748
-0.1499  -1.27837  1.48199
-0.1499  -0.964686  1.70291
-0.1499  -0.793127  1.78927
-0.1499  -0.748977  1.80819
-0.1499  -0.704376  1.82603
-0.1499  -0.613929  1.85839
-0.1499  -0.239579  1.94245
-0.1499  -0.0480314  1.95658
-1.62404e-16  -0.605915  -1.46281
-0.1499  -2.33932e-16  1.95717
-0.1499  0.0480314  1.95658
-0.1499  0.143978  1.95187
-0.1499  0.522003  1.88627
-0.1499  0.704376  1.82603
-0.1499  0.748977  1.80819
-1.68103e-16  -0.627176  -1.51414
-0.1499  0.793127  1.78927
-0.1499  0.879966  1.74819
-0.1499  1.20411  1.54293
-0.1499  1.34955  1.41748
-0.1499  1.38393  1.38393
-0.1499  1.41748  1.34955
-0.1499  1.48199  1.27837
-0.1499  1.70291  0.964686
-0.1499  1.78927  0.793127
-0.1499  1.80819  0.748977
-0.1499  1.82603  0.704376
-0.1499  1.85839  0.613929
-1.795e-16  -0.669696  -1.61679
-1.39564e-16  -1.25708  -1.25708
-1.82349e-16  -0.680326  -1.64245
-0.1499  1.94245  0.239579
-0.1499  1.95658  0.0480314
-0.1499  1.95717  2.72969e-16
-0.1499  1.95658  -0.0480314
-0.1499  1.95187  -0.143978
-0.1499  1.88627  -0.522003
-0.1499  1.82603  -0.704376
-0.1499  1.80819  -0.748977
-0.1499  1.78927  -0.793127
-0.1499  1.74819  -0.879966
-0.1499  1.54293  -1.20411
-0.1499  1.41748  -1.34955
-0.1499  1.38393  -1.38393
-0.1499  1.34955  -1.41748
-0.1499  1.27837  -1.48199
-0.1499  0.964686  -1.70291
-0.1499  0.793127  -1.78927
-0.1499  0.748977  -1.80819
-0.1499  0.704376  -1.82603
-0.1499  0.522003  -1.88627
-0.1499  0.143978  -1.95187
-0.1499  0.0480314  -1.95658
-0.1499  4.51222e-16  -1.95717
-0.1499  -0.0480314  -1.95658
-0.1499  -0.143978  -1.95187
-0.1499  -0.522003  -1.88627
-0.1499  -0.704376  -1.82603
-0.1499  -0.748977  -1.80819
-0.1499  -0.793127  -1.78927
-0.1499  -0.879966  -1.74819
-0.1499  -1.20411  -1.54293
-0.1499  -1.34955  -1.41748
-0.1499  -1.38393  -1.38393
-0.1499  -1.41748  -1.34955
-0.1499  -1.48199  -1.27837
-0.1499  -1.70291  -0.964686
-0.1499  -1.78927  -0.793127
-0.1499  -1.80819  -0.748977
-0.1499  -1.82603  -0.704376
-0.1499  -1.85839  -0.613929
-0.1499  -1.94245  -0.239579
-0.1499  -1.95658  -0.0480314
-2.68981  -0.395847  1.16613
-2.81944  -0.346729  1.14301
-2.88426  -0.353608  1.1215
-2.68981  -0.395847  -1.16613
-2.81944  -0.346729  -1.14301
-2.88426  -0.353608  -1.1215
-4.35373  0.378038  0.654781
-4.93707  -0.15255  0.569326
-5.09657  -0.106097  0.533387
-4.41146  0.728347  -0.128427
-3.98611  0.0703709  -0.858231
-4.58464  0.67962  -0.119835
-5.68446  -6.72832e-16  0.375868
-6.00347  -0.0371637  0.282286
-5.27886  0.425871  -0.245877
-5.61155  0.392084  -0.0603476
-6.0855  0.226279  0.130642
-5.39735  7.00901e-16  -0.457899
-5.55686  0.0448887  -0.409876
-5.78472  -0.122309  -0.324967
-5.98524  -0.0658363  -0.282357
1.11903e-17  -0.332271  0.100793
4.28338e-17  -0.577409  0.385813
1.4246e-16  0.531505  1.28317
1.20388e-16  0.889913  1.08436
1.25389e-16  -1.12941  1.12941
6.13692e-17  1.33449  0.552765
1.34112e-16  -1.20797  1.20797
1.83495e-16  -1.83495e-16  1.65278
-9.88002e-17  1.08436  -0.889913
-5.90089e-17  1.28317  -0.531505
-1.51921e-16  -0.134774  -1.36838
-1.54198e-16  3.08395e-16  -1.38889
-1.48158e-16  0.552765  -1.33449
-1.4246e-16  0.531505  -1.28317
-1.17757e-16  1.06066  -1.06066
-0.0738782  -1.97874  0.024284
-0.0738782  -1.97755  0.0728375
-0.0738782  -1.96089  0.266321
-0.0738782  -1.87125  0.643754
-0.0738782  -1.83741  0.734797
-0.0738782  -1.82826  0.757289
-0.0738782  -1.81883  0.779668
-0.0738782  -1.77838  0.867974
-7.05076e-17  -1.18814  -0.635076
-0.0738782  -1.57488  1.19824
-0.0738782  -1.44984  1.34684
-0.0738782  -1.41635  1.38201
-0.0738782  -1.39929  1.39929
-0.0738782  -1.38201  1.41635
-0.0738782  -1.34684  1.44984
-0.0738782  -1.19824  1.57488
-0.0738782  -0.867974  1.77838
-0.0738782  -0.779668  1.81883
-0.0738782  -0.757289  1.82826
-0.0738782  -0.734797  1.83741
-0.0738782  -0.689483  1.85489
-0.0738782  -0.504352  1.91354
-0.0738782  -0.121347  1.97517
-0.0738782  -0.024284  1.97874
-0.0738782  -2.27903e-16  1.97889
-0.0738782  0.024284  1.97874
-0.0738782  0.0728375  1.97755
-0.0738782  0.266321  1.96089
-1.83495e-16  3.6699e-16  -1.65278
-0.0738782  0.643754  1.87125
-0.0738782  0.734797  1.83741
-0.0738782  0.757289  1.82826
-0.0738782  0.779668  1.81883
-0.0738782  0.824069  1.79915
-0.0738782  0.996448  1.70971
-1.25389e-16  -1.12941  -1.12941
-0.0738782  1.31085  1.48246
-0.0738782  1.38201  1.41635
-0.0738782  1.39929  1.39929
-0.0738782  1.41635  1.38201
-0.0738782  1.44984  1.34684
-0.0738782  1.57488  1.19824
-0.0738782  1.77838  0.867974
-0.0738782  1.81883  0.779668
-0.0738782  1.82826  0.757289
-0.0738782  1.83741  0.734797
-0.0738782  1.85489  0.689483
-0.0738782  1.91354  0.504352
-0.0738782  1.97517  0.121347
-1.34112e-16  -1.20797  -1.20797
-0.0738782  1.97874  0.024284
-0.0738782  1.97889  2.58749e-16
-0.0738782  1.97874  -0.024284
-0.0738782  1.97755  -0.0728375
-0.0738782  1.96089  -0.266321
-0.0738782  1.87125  -0.643754
-0.0738782  1.83741  -0.734797
-0.0738782  1.82826  -0.757289
-0.0738782  1.81883  -0.779668
-0.0738782  1.79915  -0.824069
-0.0738782  1.70971  -0.996448
-0.0738782  1.48246  -1.31085
-0.0738782  1.41635  -1.38201
-0.0738782  1.39929  -1.39929
-0.0738782  1.38201  -1.41635
-0.0738782  1.34684  -1.44984
-0.0738782  1.19824  -1.57488
-0.0738782  0.867974  -1.77838
-0.0738782  0.779668  -1.81883
-0.0738782  0.757289  -1.82826
-0.0738782  0.734797  -1.83741
-0.0738782  0.643754  -1.87125
-0.0738782  0.266321  -1.96089
-0.0738782  0.0728375  -1.97755
-0.0738782  0.024284  -1.97874
-0.0738782  4.47604e-16  -1.97889
-0.0738782  -0.024284  -1.97874
-0.0738782  -0.0728375  -1.97755
-0.0738782  -0.266321  -1.96089
-0.0738782  -0.643754  -1.87125
-0.0738782  -0.734797  -1.83741
-0.0738782  -0.757289  -1.82826
-0.0738782  -0.779668  -1.81883
-0.0738782  -0.824069  -1.79915
-0.0738782  -0.996448  -1.70971
-0.0738782  -1.31085  -1.48246
-0.0738782  -1.38201  -1.41635
-0.0738782  -1.39929  -1.39929
-0.0738782  -1.41635  -1.38201
-0.0738782  -1.44984  -1.34684
-0.0738782  -1.57488  -1.19824
-0.0738782  -1.77838  -0.867974
-0.0738782  -1.81883  -0.779668
-0.0738782  -1.82826  -0.757289
-0.0738782  -1.83741  -0.734797
-0.0738782  -1.85489  -0.689483
-0.0738782  -1.91354  -0.504352
-0.0738782  -1.97517  -0.121347
-0.0738782  -1.97874  -0.024284
-5.68902  -0.187283  0.324384
5.77545e-17  0.0255561  0.520206
7.56174e-17  -0.135479  0.681101
6.41053e-17  0.385813  0.577409
8.31487e-17  -0.912582  0.748937
1.11914e-16  -0.200509  1.00803
1.10261e-16  -0.663598  0.993144
1.54198e-16  -1.54198e-16  1.38889
1.09034e-16  0.982093  0.982093
5.90089e-17  1.28317  0.531505
7.40561e-17  -1.61037  0.667038
7.55314e-17  -1.64245  0.680326
8.73613e-32  1.38889  7.8688e-16
-1.3168e-16  -0.0582679  -1.18607
-1.25424e-16  -0.342697  -1.12972
1.75938e-16  -0.656408  1.58471
-1.09034e-16  0.982093  -0.982093
-0.0358673  -1.98971  0.0122089
-0.0358673  -1.98942  0.0366248
-0.0358673  -1.98522  0.134197
-0.0358673  -1.9209  0.518916
-0.0358673  -1.86078  0.704698
-0.0358673  -1.84293  0.750151
-0.0358673  -1.83829  0.761445
-0.0358673  -1.83358  0.77271
-0.0358673  -1.81407  0.817476
-0.0358673  -1.72521  0.99135
-0.0358673  -1.49866  1.30887
-0.0358673  -1.43263  1.38083
-0.0358673  -1.41557  1.39831
-0.0358673  -1.40697  1.40697
-0.0358673  -1.39831  1.41557
-0.0358673  -1.38083  1.43263
-0.0358673  -1.30887  1.49866
-0.0358673  -0.99135  1.72521
-0.0358673  -0.817476  1.81407
-0.0358673  -0.77271  1.83358
-0.0358673  -0.761445  1.83829
-0.0358673  -0.750151  1.84293
-0.0358673  -0.727479  1.852
-0.0358673  -0.63573  1.88546
-0.0358673  -0.255679  1.97326
-0.0358673  -0.0610353  1.98882
-0.0358673  -0.0122089  1.98971
-0.0358673  -2.24889e-16  1.98975
-0.0358673  0.0122089  1.98971
-0.0358673  0.0366248  1.98942
-0.0358673  0.134197  1.98522
-0.0358673  0.518916  1.9209
-0.0358673  0.704698  1.86078
-0.0358673  0.750151  1.84293
-0.0358673  0.761445  1.83829
-0.0358673  0.77271  1.83358
-0.0358673  0.795153  1.82396
-0.0358673  0.883693  1.78275
-0.0358673  1.21451  1.5761
-0.0358673  1.36315  1.44946
-0.0358673  1.39831  1.41557
-0.0358673  1.40697  1.40697
-0.0358673  1.41557  1.39831
-0.0358673  1.43263  1.38083
-0.0358673  1.49866  1.30887
-0.0358673  1.72521  0.99135
-0.0358673  1.81407  0.817476
-0.0358673  1.83358  0.77271
-0.0358673  1.83829  0.761445
-0.0358673  1.84293  0.750151
-0.0358673  1.852  0.727479
-0.0358673  1.88546  0.63573
-1.75938e-16  -0.656408  -1.58471
-0.0358673  1.97326  0.255679
-0.0358673  1.98882  0.0610353
-0.0358673  1.98971  0.0122089
-0.0358673  1.98975  2.51639e-16
-0.0358673  1.98971  -0.0122089
-0.0358673  1.98942  -0.0366248
-0.0358673  1.98522  -0.134197
-0.0358673  1.9209  -0.518916
-0.0358673  1.86078  -0.704698
-0.0358673  1.84293  -0.750151
-0.0358673  1.83829  -0.761445
-0.0358673  1.83358  -0.77271
-0.0358673  1.82396  -0.795153
-0.0358673  1.78275  -0.883693
-0.0358673  1.5761  -1.21451
-7.40561e-17  -1.61037  -0.667038
-7.55314e-17  -1.64245  -0.680326
-0.0358673  1.44946  -1.36315
-0.0358673  1.41557  -1.39831
-0.0358673  1.40697  -1.40697
-0.0358673  1.39831  -1.41557
-0.0358673  1.38083  -1.43263
-0.0358673  1.30887  -1.49866
-0.0358673  0.99135  -1.72521
-0.0358673  0.817476  -1.81407
-0.0358673  0.77271  -1.83358
-0.0358673  0.761445  -1.83829
-0.0358673  0.750151  -1.84293
-0.0358673  0.704698  -1.86078
-0.0358673  0.518916  -1.9209
-0.0358673  0.134197  -1.98522
-0.0358673  0.0366248  -1.98942
-0.0358673  0.0122089  -1.98971
-0.0358673  4.45796e-16  -1.98975
-0.0358673  -0.0122089  -1.98971
-0.0358673  -0.0366248  -1.98942
-0.0358673  -0.134197  -1.98522
-0.0358673  -0.518916  -1.9209
-0.0358673  -0.704698  -1.86078
-0.0358673  -0.750151  -1.84293
-0.0358673  -0.761445  -1.83829
-0.0358673  -0.77271  -1.83358
-0.0358673  -0.795153  -1.82396
-0.0358673  -0.883693  -1.78275
-0.0358673  -1.21451  -1.5761
-0.0358673  -1.36315  -1.44946
-0.0358673  -1.39831  -1.41557
-0.0358673  -1.40697  -1.40697
-0.0358673  -1.41557  -1.39831
-0.0358673  -1.43263  -1.38083
-0.0358673  -1.49866  -1.30887
-0.0358673  -1.72521  -0.99135
-0.0358673  -1.81407  -0.817476
-0.0358673  -1.83358  -0.77271
-0.0358673  -1.83829  -0.761445
-0.0358673  -1.84293  -0.750151
-0.0358673  -1.852  -0.727479
-0.0358673  -1.88546  -0.63573
-0.0358673  -1.97326  -0.255679
-0.0358673  -1.98882  -0.0610353
-0.0358673  -1.98971  -0.0122089
2.69747e-17  -0.0937227  0.242967
3.39975e-17  -0.163679  0.306223
1.65325e-17  0.0892539  0.148911
3.93968e-17  -0.249917  0.354855
3.68895e-17  0.100793  0.332271
1.81721e-17  0.306223  0.163679
-9.90918e-18  0.148911  -0.0892539
-1.65325e-17  -0.0892539  -0.148911
-3.39975e-17  0.163679  -0.306223
-7.09537e-19  0.260338  -0.00639094
-1.11903e-17  0.332271  -0.100793
-2.83729e-18  0.520206  -0.0255561
3.88323e-17  0.385912  0.34977
3.86509e-17  0.691629  0.348137
1.86511e-17  0.844565  0.167994
4.1205e-17  0.784713  0.371142
7.74749e-17  0.351259  0.697831
-4.65316e-18  0.853138  -0.041912
-2.29911e-17  -0.365557  -0.207086
9.40028e-17  0.426194  0.846702
1.15091e-16  0.102101  1.03665
8.66729e-17  0.549817  0.78068
7.33665e-17  0.805219  0.660826
1.21489e-16  0.245728  1.09428
1.20575e-16  -0.51366  1.08604
-5.54781e-17  0.789117  -0.499703
-9.92728e-17  0.477944  -0.89417
-6.3394e-17  0.854566  -0.571003
1.41672e-16  0.221419  1.27607
1.43746e-16  -0.0317843  1.29475
-7.16965e-17  0.916944  -0.645785
-1.13355e-17  1.03665  -0.102101
-1.21394e-16  -0.026842  -1.09342
-5.17491e-17  1.20836  -0.466114
-7.69269e-17  1.0942  -0.692896
-6.85934e-17  -1.09063  -0.617834
-5.94729e-17  -0.945615  -0.535684
-1.11759e-16  -0.603357  -1.00664
-0.0168618  -1.99517  0.00612113
-0.0168618  -1.9951  0.0183632
-0.0168618  -1.99405  0.0673198
-0.0168618  -1.97785  0.262446
-0.0168618  -1.88864  0.643262
-0.0168618  -1.8548  0.735159
-0.0168618  -1.84564  0.757864
-0.0168618  -1.84331  0.763523
-0.0168618  -1.84096  0.769175
-0.0168618  -1.83138  0.791708
-0.0168618  -1.79033  0.880616
-0.0168618  -1.58413  1.21297
-0.0168618  -1.45761  1.3624
-0.0168618  -1.42373  1.39776
-0.0168618  -1.41513  1.40647
-0.0168618  -1.41081  1.41081
-0.0168618  -1.40647  1.41513
-0.0168618  -1.39776  1.42373