VARIABLES = X Y Z
ZONE N =20, E =18, DATAPACKING = POINT, ZONETYPE = FETRIANGLE
-7.5  0  0
-7.5  -2.5  0
-5.64518  -2.86374  0
-3.77308  -3.12436  0
-1.88943  -3.28105  0
8.88178e-16  -3.33333  0
1.88943  -3.28105  0
3.77308  -3.12436  0
5.64518  -2.86374  0
7.5  -2.5  0
7.5  0  0
7.5  2.5  0
-7.5  2.5  0
-5.64518  2.86374  0
-3.77308  3.12436  0
-1.88943  3.28105  0
8.88178e-16  3.33333  0
1.88943  3.28105  0
3.77308  3.12436  0
5.64518  2.86374  0
1  2  3
14  13  1
14  1  3
15  3  4
15  14  3
16  4  5
16  15  4
17  5  6
17  6  7
17  16  5
18  17  7
19  7  8
19  18  7
11  9  10
20  8  9
20  19  8
20  9  11
12  20  11
