VARIABLES = X Y Z
ZONE N =4, E =2, DATAPACKING = POINT, ZONETYPE = FETRIANGLE
-7.5  0  0
-7.5  0  20
-7.5  -2.5  20
-7.5  -2.5  0
1  2  3
4  1  3
VARIABLES = X Y Z
ZONE N =18, E =16, DATAPACKING = POINT, ZONETYPE = FETRIANGLE
-7.5  -2.5  0
-7.5  -2.5  20
-5.64518  -2.86374  20
-3.77308  -3.12436  20
-1.88943  -3.28105  20
8.88178e-16  -3.33333  20
1.88943  -3.28105  20
3.77308  -3.12436  20
5.64518  -2.86374  20
7.5  -2.5  20
7.5  -2.5  0
-5.64518  -2.86374  0
-3.77308  -3.12436  0
-1.88943  -3.28105  0
8.88178e-16  -3.33333  0
1.88943  -3.28105  0
3.77308  -3.12436  0
5.64518  -2.86374  0
12  1  2
12  2  3
13  3  4
13  4  5
13  12  3
14  13  5
15  5  6
15  14  5
16  6  7
16  15  6
17  7  8
17  16  7
18  8  9
18  17  8
11  9  10
11  18  9
VARIABLES = X Y Z
ZONE N =4, E =2, DATAPACKING = POINT, ZONETYPE = FETRIANGLE
7.5  -2.5  0
7.5  -2.5  20
7.5  0  20
7.5  0  0
1  2  3
4  1  3
VARIABLES = X Y Z
ZONE N =4, E =2, DATAPACKING = POINT, ZONETYPE = FETRIANGLE
-7.5  0  0
-7.5  0  20
-7.5  2.5  20
-7.5  2.5  0
1  2  3
4  1  3
VARIABLES = X Y Z
ZONE N =18, E =16, DATAPACKING = POINT, ZONETYPE = FETRIANGLE
-7.5  2.5  0
-7.5  2.5  20
-5.64518  2.86374  20
-3.77308  3.12436  20
-1.88943  3.28105  20
8.88178e-16  3.33333  20
1.88943  3.28105  20
3.77308  3.12436  20
5.64518  2.86374  20
7.5  2.5  20
7.5  2.5  0
-5.64518  2.86374  0
-3.77308  3.12436  0
-1.88943  3.28105  0
8.88178e-16  3.33333  0
1.88943  3.28105  0
3.77308  3.12436  0
5.64518  2.86374  0
12  1  2
12  2  3
13  3  4
13  4  5
13  12  3
14  13  5
15  5  6
15  14  5
16  6  7
16  15  6
17  7  8
17  16  7
18  8  9
18  17  8
11  9  10
11  18  9
VARIABLES = X Y Z
ZONE N =4, E =2, DATAPACKING = POINT, ZONETYPE = FETRIANGLE
7.5  2.5  0
7.5  2.5  20
7.5  0  20
7.5  0  0
1  2  3
4  1  3
VARIABLES = X Y Z
ZONE N =20, E =18, DATAPACKING = POINT, ZONETYPE = FETRIANGLE
-7.5  0  0
-7.5  -2.5  0
-5.64518  -2.86374  0
-3.77308  -3.12436  0
-1.88943  -3.28105  0
8.88178e-16  -3.33333  0
1.88943  -3.28105  0
3.77308  -3.12436  0
5.64518  -2.86374  0
7.5  -2.5  0
7.5  0  0
7.5  2.5  0
-7.5  2.5  0
-5.64518  2.86374  0
-3.77308  3.12436  0
-1.88943  3.28105  0
8.88178e-16  3.33333  0
1.88943  3.28105  0
3.77308  3.12436  0
5.64518  2.86374  0
1  2  3
14  13  1
14  1  3
15  3  4
15  14  3
16  4  5
16  15  4
17  5  6
17  6  7
17  16  5
18  17  7
19  7  8
19  18  7
11  9  10
20  8  9
20  19  8
20  9  11
12  20  11
VARIABLES = X Y Z
ZONE N =20, E =18, DATAPACKING = POINT, ZONETYPE = FETRIANGLE
-7.5  0  0
-7.5  -2.5  0
-5.64518  -2.86374  0
-3.77308  -3.12436  0
-1.88943  -3.28105  0
8.88178e-16  -3.33333  0
1.88943  -3.28105  0
3.77308  -3.12436  0
5.64518  -2.86374  0
7.5  -2.5  0
7.5  0  0
7.5  2.5  0
-7.5  2.5  0
-5.64518  2.86374  0
-3.77308  3.12436  0
-1.88943  3.28105  0
8.88178e-16  3.33333  0
1.88943  3.28105  0
3.77308  3.12436  0
5.64518  2.86374  0
1  2  3
14  13  1
14  1  3
15  3  4
15  14  3
16  4  5
16  15  4
17  5  6
17  6  7
17  16  5
18  17  7
19  7  8
19  18  7
11  9  10
20  8  9
20  19  8
20  9  11
12  20  11
