VARIABLES = X Y Z
ZONE N =56, E =54, DATAPACKING = POINT, ZONETYPE = FETRIANGLE
1.42857  -3.49899e-16  20
1.42857  -3.49899e-16  22
1.42857  -3.49899e-16  22
1.38706  0.34188  22
1.26494  0.66389  22
1.0693  0.947318  22
0.811521  1.17569  22
0.506578  1.33574  22
0.172195  1.41816  22
-0.172195  1.41816  22
-0.506578  1.33574  22
-0.811521  1.17569  22
-1.0693  0.947318  22
-1.26494  0.66389  22
-1.38706  0.34188  22
-1.42857  1.44378e-15  22
-1.38706  -0.34188  22
-1.26494  -0.66389  22
-1.0693  -0.947318  22
-0.811521  -1.17569  22
-0.506578  -1.33574  22
-0.172195  -1.41816  22
0.172195  -1.41816  22
0.506578  -1.33574  22
0.811521  -1.17569  22
1.0693  -0.947318  22
1.26494  -0.66389  22
1.38706  -0.34188  22
1.42857  -3.49899e-16  20
1.38794  0.338287  20
1.26836  0.657331  20
1.07663  0.938984  20
0.823653  1.16722  20
0.523827  1.32907  20
0.266597  1.40348  20
3.25954e-15  1.42857  20
-0.266597  1.40348  20
-0.523827  1.32907  20
-0.823653  1.16722  20
-1.07663  0.938984  20
-1.26836  0.657331  20
-1.38794  0.338287  20
-1.42857  1.7495e-16  20
-1.38794  -0.338287  20
-1.26836  -0.657331  20
-1.07663  -0.938984  20
-0.823653  -1.16722  20
-0.523827  -1.32907  20
-0.266597  -1.40348  20
1.0064e-15  -1.42857  20
0.266597  -1.40348  20
0.523827  -1.32907  20
0.823653  -1.16722  20
1.07663  -0.938984  20
1.26836  -0.657331  20
1.38794  -0.338287  20
3  29  30
4  30  31
4  3  30
5  31  32
5  4  31
6  32  33
6  5  32
7  33  34
7  6  33
8  34  35
8  7  34
9  35  36
9  8  35
10  36  37
10  9  36
11  37  38
11  10  37
12  38  39
12  11  38
13  12  39
13  39  40
14  13  40
14  40  41
15  14  41
15  41  42
16  15  42
16  42  43
16  43  44
17  16  44
17  44  45
18  17  45
18  45  46
19  18  46
19  46  47
20  19  47
20  47  48
21  20  48
21  48  49
22  21  49
22  49  50
23  22  50
23  50  51
24  23  51
24  51  52
25  24  52
25  52  53
26  25  53
26  53  54
27  54  55
27  26  54
28  55  56
28  27  55
2  56  1
2  28  56
VARIABLES = X Y Z
ZONE N =18, E =16, DATAPACKING = POINT, ZONETYPE = FETRIANGLE
0.523827  1.32907  20
2.18992  1.2587  20
3.85014  1.10208  20
5.5  0.859638  20
1.42857  -3.49899e-16  20
1.38794  0.338287  20
1.26836  0.657331  20
1.07663  0.938984  20
0.823653  1.16722  20
0.523827  -1.32907  20
0.823653  -1.16722  20
1.07663  -0.938984  20
1.26836  -0.657331  20
1.38794  -0.338287  20
2.18992  -1.2587  20
3.85014  -1.10208  20
5.5  -0.859638  20
5.5  0  20
15  11  10
15  12  11
15  13  12
14  13  15
5  14  15
2  6  5
2  7  6
2  8  7
2  9  8
2  1  9
2  15  16
2  5  15
3  2  16
18  16  17
18  3  16
4  3  18
VARIABLES = X Y Z
ZONE N =7, E =5, DATAPACKING = POINT, ZONETYPE = FETRIANGLE
-0.523827  -1.32907  20
-0.266597  -1.40348  20
1.0064e-15  -1.42857  20
0.266597  -1.40348  20
0.523827  -1.32907  20
-0.174616  -1.33286  20
0.174616  -1.33286  20
6  1  2
3  6  2
7  6  3
4  7  3
5  7  4
VARIABLES = X Y Z
ZONE N =18, E =16, DATAPACKING = POINT, ZONETYPE = FETRIANGLE
-5.5  0.859638  20
-3.85014  1.10208  20
-2.18992  1.2587  20
-0.523827  1.32907  20
-5.5  0  20
-5.5  -0.859638  20
-3.85014  -1.10208  20
-2.18992  -1.2587  20
-0.523827  -1.32907  20
-0.823653  1.16722  20
-1.07663  0.938984  20
-1.26836  0.657331  20
-1.38794  0.338287  20
-1.42857  1.7495e-16  20
-1.38794  -0.338287  20
-1.26836  -0.657331  20
-1.07663  -0.938984  20
-0.823653  -1.16722  20
7  5  6
2  1  5
2  7  8
2  5  7
18  17  8
16  8  17
9  18  8
15  8  16
14  8  15
3  14  13
3  2  8
3  8  14
12  3  13
11  3  12
10  3  11
4  3  10
VARIABLES = X Y Z
ZONE N =7, E =5, DATAPACKING = POINT, ZONETYPE = FETRIANGLE
-0.523827  1.32907  20
-0.174616  1.33286  20
0.174616  1.33286  20
0.523827  1.32907  20
0.266597  1.40348  20
3.25954e-15  1.42857  20
-0.266597  1.40348  20
2  7  1
6  7  2
3  6  2
5  6  3
4  5  3
VARIABLES = X Y Z
ZONE N =26, E =24, DATAPACKING = POINT, ZONETYPE = FETRIANGLE
1.42857  -3.49899e-16  22
1.38706  0.34188  22
1.26494  0.66389  22
1.0693  0.947318  22
0.811521  1.17569  22
0.506578  1.33574  22
0.172195  1.41816  22
-0.172195  1.41816  22
-0.506578  1.33574  22
-0.811521  1.17569  22
-1.0693  0.947318  22
-1.26494  0.66389  22
-1.38706  0.34188  22
-1.42857  1.44378e-15  22
-1.38706  -0.34188  22
-1.26494  -0.66389  22
-1.0693  -0.947318  22
-0.811521  -1.17569  22
-0.506578  -1.33574  22
-0.172195  -1.41816  22
0.172195  -1.41816  22
0.506578  -1.33574  22
0.811521  -1.17569  22
1.0693  -0.947318  22
1.26494  -0.66389  22
1.38706  -0.34188  22
23  21  22
9  10  11
26  23  24
26  24  25
26  21  23
6  7  8
6  8  9
6  11  12
6  12  13
6  13  14
6  14  15
6  15  16
6  16  17
6  17  18
6  18  19
6  19  20
6  20  21
6  9  11
4  1  2
4  2  3
4  5  6
4  26  1
4  21  26
4  6  21
VARIABLES = X Y Z
ZONE N =71, E =111, DATAPACKING = POINT, ZONETYPE = FETRIANGLE
-5.5  0.859638  20
-5.5761  1.29813  19.9499
-5.64837  1.71463  19.8019
-5.71321  2.08825  19.5637
-5.76736  2.40027  19.247
-5.8081  2.63504  18.8678
-5.8334  2.78078  18.445
-5.84197  2.83019  18
-3.90532  3.10941  18
-1.95587  3.27731  18
-8.88178e-16  3.33333  18
1.95587  3.27731  18
3.90532  3.10941  18
5.84197  2.83019  18
5.5  0.859638  20
5.5761  1.29813  19.9499
5.64837  1.71463  19.8019
5.71321  2.08825  19.5637
5.76736  2.40027  19.247
5.8081  2.63504  18.8678
5.8334  2.78078  18.445
0.523827  1.32907  20
2.18992  1.2587  20
3.85014  1.10208  20
-0.523827  1.32907  20
-0.174616  1.33286  20
0.174616  1.33286  20
-3.85014  1.10208  20
-2.18992  1.2587  20
-4.08352  3.03792  18.445
-4.06582  2.89107  18.8678
-4.0373  2.65451  19.247
-3.99939  2.3401  19.5637
-2.32267  3.20403  18.445
-3.954  1.96361  19.8019
-2.3126  3.05646  18.8678
-3.9034  1.54393  19.9499
-2.29638  2.81874  19.247
-2.27482  2.50279  19.5637
-0.55558  3.27867  18.445
-2.249  2.12446  19.8019
-0.553171  3.13077  18.8678
-2.22022  1.70271  19.9499
-8.88178e-16  3.28319  18.445
-0.549291  2.89252  19.247
0  3.13527  18.8678
0.55558  3.27867  18.445
-0.544134  2.57588  19.5637
-8.88178e-16  2.897  19.247
0.553171  3.13077  18.8678
-0.537959  2.19672  19.8019
-1.77636e-15  2.58031  19.5637
0.549291  2.89252  19.247
-0.531075  1.77405  19.9499
-8.88178e-16  2.2011  19.8019
0.544134  2.57588  19.5637
1.953  3.22724  18.445
-8.88178e-16  1.77838  19.9499
0.537959  2.19672  19.8019
1.94453  3.07957  18.8678
0.531075  1.77405  19.9499
1.93089  2.84168  19.247
1.91276  2.52552  19.5637
1.89105  2.14693  19.8019
3.89959  3.05959  18.445
1.86686  1.7249  19.9499
3.88268  2.91264  18.8678
3.85545  2.67593  19.247
3.81925  2.36132  19.5637
3.77591  1.98459  19.8019
3.72759  1.56464  19.9499
15  24  16
30  7  8
30  8  9
31  6  7
31  7  30
32  5  6
32  6  31
33  4  5
33  5  32
34  9  10
34  30  9
35  3  4
35  4  33
36  30  34
36  31  30
36  34  10
37  1  2
37  2  3
37  28  1
37  3  35
38  32  31
38  31  36
39  32  38
39  33  32
40  10  11
41  33  39
41  35  33
42  10  40
42  36  10
43  29  28
43  35  41
43  37  35
43  28  37
44  40  11
45  38  36
45  36  42
46  42  40
46  40  44
47  46  44
47  11  12
47  44  11
48  38  45
48  39  38
49  45  42
49  42  46
50  46  47
51  39  48
51  41  39
52  48  45
52  51  48
52  45  49
53  49  46
53  46  50
54  41  51
54  26  25
54  25  29
54  29  43
54  43  41
55  51  52
55  54  51
56  49  53
56  52  49
57  47  12
58  54  55
58  27  26
58  26  54
59  55  52
59  52  56
60  50  47
60  47  57
61  22  27
61  55  59
61  58  55
61  27  58
62  53  50
62  56  53
62  50  60
63  59  56
63  56  62
64  59  63
65  57  12
65  12  13
65  13  14
65  14  21
66  23  22
66  64  23
66  61  59
66  22  61
66  59  64
67  21  20
67  60  57
67  57  65
67  65  21
68  20  19
68  62  60
68  67  20
68  60  67
69  19  18
69  63  62
69  68  19
69  62  68
70  18  17
70  23  64
70  64  63
70  69  18
70  63  69
71  17  16
71  24  23
71  70  17
71  23  70
71  16  24
VARIABLES = X Y Z
ZONE N =16, E =14, DATAPACKING = POINT, ZONETYPE = FETRIANGLE
7.5  0  18
7.44986  0  18.445
7.30194  0  18.8678
7.06366  0  19.247
6.74698  0  19.5637
6.36777  0  19.8019
5.94504  0  19.9499
5.5  0  20
5.5  0.859638  20
5.94504  0.859638  19.9499
6.36777  0.859638  19.8019
6.74698  0.859638  19.5637
7.06366  0.859638  19.247
7.30194  0.859638  18.8678
7.44986  0.859638  18.445
7.5  0.859638  18
15  1  2
15  16  1
14  2  3
14  15  2
13  3  4
13  14  3
12  4  5
12  13  4
11  5  6
11  12  5
10  6  7
10  7  8
10  11  6
9  10  8
VARIABLES = X Y Z
ZONE N =16, E =14, DATAPACKING = POINT, ZONETYPE = FETRIANGLE
5.5  -0.859638  20
5.94504  -0.859638  19.9499
6.36777  -0.859638  19.8019
6.74698  -0.859638  19.5637
7.06366  -0.859638  19.247
7.30194  -0.859638  18.8678
7.44986  -0.859638  18.445
7.5  -0.859638  18
5.5  0  20
7.5  0  18
7.44986  0  18.445
7.30194  0  18.8678
7.06366  0  19.247
6.74698  0  19.5637
6.36777  0  19.8019
5.94504  0  19.9499
11  8  7
11  10  8
12  7  6
12  11  7
13  6  5
13  12  6
14  5  4
14  13  5
15  4  3
15  14  4
16  2  1
16  3  2
16  15  3
9  16  1
VARIABLES = X Y Z
ZONE N =71, E =111, DATAPACKING = POINT, ZONETYPE = FETRIANGLE
-5.5  -0.859638  20
-5.5761  -1.29813  19.9499
-5.64837  -1.71463  19.8019
-5.71321  -2.08825  19.5637
-5.76736  -2.40027  19.247
-5.8081  -2.63504  18.8678
-5.8334  -2.78078  18.445
-5.84197  -2.83019  18
-3.90532  -3.10941  18
-1.95587  -3.27731  18
-8.88178e-16  -3.33333  18
1.95587  -3.27731  18
3.90532  -3.10941  18
5.84197  -2.83019  18
5.5  -0.859638  20
5.5761  -1.29813  19.9499
5.64837  -1.71463  19.8019
5.71321  -2.08825  19.5637
5.76736  -2.40027  19.247
5.8081  -2.63504  18.8678
5.8334  -2.78078  18.445
0.523827  -1.32907  20
2.18992  -1.2587  20
3.85014  -1.10208  20
-0.523827  -1.32907  20
-0.174616  -1.33286  20
0.174616  -1.33286  20
-3.85014  -1.10208  20
-2.18992  -1.2587  20
-4.08352  -3.03792  18.445
-4.06582  -2.89107  18.8678
-4.0373  -2.65451  19.247
-3.99939  -2.3401  19.5637
-2.32267  -3.20403  18.445
-3.954  -1.96361  19.8019
-2.3126  -3.05646  18.8678
-3.9034  -1.54393  19.9499
-2.29638  -2.81874  19.247
-2.27482  -2.50279  19.5637
-0.55558  -3.27867  18.445
-2.249  -2.12446  19.8019
-0.553171  -3.13077  18.8678
-2.22022  -1.70271  19.9499
-8.88178e-16  -3.28319  18.445
-0.549291  -2.89252  19.247
0  -3.13527  18.8678
0.55558  -3.27867  18.445
-0.544134  -2.57588  19.5637
-8.88178e-16  -2.897  19.247
0.553171  -3.13077  18.8678
-0.537959  -2.19672  19.8019
-1.77636e-15  -2.58031  19.5637
0.549291  -2.89252  19.247
-0.531075  -1.77405  19.9499
-8.88178e-16  -2.2011  19.8019
0.544134  -2.57588  19.5637
1.953  -3.22724  18.445
-8.88178e-16  -1.77838  19.9499
0.537959  -2.19672  19.8019
1.94453  -3.07957  18.8678
0.531075  -1.77405  19.9499
1.93089  -2.84168  19.247
1.91276  -2.52552  19.5637
1.89105  -2.14693  19.8019
3.89959  -3.05959  18.445
1.86686  -1.7249  19.9499
3.88268  -2.91264  18.8678
3.85545  -2.67593  19.247
3.81925  -2.36132  19.5637
3.77591  -1.98459  19.8019
3.72759  -1.56464  19.9499
15  24  16
30  7  8
30  8  9
31  6  7
31  7  30
32  5  6
32  6  31
33  4  5
33  5  32
34  9  10
34  30  9
35  3  4
35  4  33
36  30  34
36  31  30
36  34  10
37  1  2
37  2  3
37  28  1
37  3  35
38  32  31
38  31  36
39  32  38
39  33  32
40  10  11
41  35  33
41  33  39
42  10  40
42  36  10
43  29  28
43  37  35
43  35  41
43  28  37
44  40  11
45  38  36
45  36  42
46  42  40
46  40  44
47  11  12
47  44  11
48  38  45
48  39  38
49  45  42
49  42  46
50  46  44
50  44  47
51  39  48
51  41  39
52  51  48
52  45  49
52  48  45
53  46  50
53  49  46
54  41  51
54  26  25
54  25  29
54  29  43
54  43  41
55  51  52
56  52  49
56  49  53
57  47  12
57  50  47
58  54  51
58  27  26
58  26  54
58  51  55
59  55  52
59  58  55
59  52  56
60  50  57
61  22  27
61  27  58
61  58  59
62  53  50
62  50  60
62  56  53
63  56  62
64  59  56
64  56  63
65  12  13
65  13  14
65  57  12
65  14  21
65  60  57
66  23  22
66  64  23
66  61  59
66  22  61
66  59  64
67  21  20
67  60  65
67  65  21
68  19  18
68  20  19
68  62  60
68  63  62
68  67  20
68  60  67
69  63  68
69  68  18
70  18  17
70  23  64
70  64  63
70  69  18
70  63  69
71  17  16
71  24  23
71  70  17
71  23  70
71  16  24
VARIABLES = X Y Z
ZONE N =16, E =14, DATAPACKING = POINT, ZONETYPE = FETRIANGLE
-7.5  0  18
-7.44986  0  18.445
-7.30194  0  18.8678
-7.06366  0  19.247
-6.74698  0  19.5637
-6.36777  0  19.8019
-5.94504  0  19.9499
-5.5  0  20
-5.5  -0.859638  20
-5.94504  -0.859638  19.9499
-6.36777  -0.859638  19.8019
-6.74698  -0.859638  19.5637
-7.06366  -0.859638  19.247
-7.30194  -0.859638  18.8678
-7.44986  -0.859638  18.445
-7.5  -0.859638  18
15  1  2
15  16  1
14  2  3
14  15  2
13  3  4
13  14  3
12  4  5
12  5  6
12  13  4
11  12  6
10  6  7
10  7  8
10  11  6
9  10  8
VARIABLES = X Y Z
ZONE N =16, E =14, DATAPACKING = POINT, ZONETYPE = FETRIANGLE
-5.5  0.859638  20
-5.94504  0.859638  19.9499
-6.36777  0.859638  19.8019
-6.74698  0.859638  19.5637
-7.06366  0.859638  19.247
-7.30194  0.859638  18.8678
-7.44986  0.859638  18.445
-7.5  0.859638  18
-5.5  0  20
-7.5  0  18
-7.44986  0  18.445
-7.30194  0  18.8678
-7.06366  0  19.247
-6.74698  0  19.5637
-6.36777  0  19.8019
-5.94504  0  19.9499
10  8  7
11  10  7
12  7  6
12  11  7
13  6  5
13  12  6
14  5  4
14  13  5
15  4  3
15  14  4
16  3  2
16  15  3
9  2  1
9  16  2
VARIABLES = X Y Z
ZONE N =54, E =85, DATAPACKING = POINT, ZONETYPE = FETRIANGLE
-5.5  0.859638  20
-5.5761  1.29813  19.9499
-5.64837  1.71463  19.8019
-5.71321  2.08825  19.5637
-5.76736  2.40027  19.247
-5.8081  2.63504  18.8678
-5.8334  2.78078  18.445
-5.84197  2.83019  18
-5.5  0.859638  20
-5.94504  0.859638  19.9499
-6.36777  0.859638  19.8019
-6.74698  0.859638  19.5637
-7.06366  0.859638  19.247
-7.30194  0.859638  18.8678
-7.44986  0.859638  18.445
-7.5  0.859638  18
-6.28802  2.69785  18
-6.69142  2.46604  18
-7.03035  2.14728  18
-7.28646  1.75885  18
-7.44588  1.32175  18
-5.62658  1.2863  19.9499
-5.72174  1.24551  19.9499
-5.8049  1.18383  19.9499
-5.84191  1.65721  19.8019
-5.87155  1.10461  19.9499
-6.01694  1.55663  19.8019
-5.85468  2.05511  19.5637
-5.9181  1.01213  19.9499
-6.16399  1.41833  19.8019
-6.1213  1.94082  19.5637
-5.94202  0.911404  19.9499
-6.27511  1.24979  19.8019
-6.3543  1.76801  19.5637
-6.1161  2.29681  19.247
-6.34429  1.06014  19.8019
-6.54106  1.54604  19.5637
-6.43149  2.11557  19.247
-6.01252  2.58715  18.8678
-6.67149  1.28692  19.5637
-6.69648  1.86636  19.247
-6.3978  2.42199  18.8678
-6.73852  1.00468  19.5637
-6.89671  1.56267  19.247
-6.7345  2.17227  18.8678
-6.26826  2.65176  18.445
-7.02135  1.22093  19.247
-7.00438  1.85151  18.8678
-6.66155  2.42576  18.445
-7.19285  1.47708  18.8678
-6.99198  2.115  18.445
-7.28971  1.06923  18.8678
-7.24167  1.7363  18.445
-7.39709  1.31016  18.445
22  2  1
22  3  2
23  22  1
24  23  1
25  3  22
25  22  23
26  1  9
26  24  1
27  23  24
27  25  23
28  4  3
28  5  4
28  3  25
29  26  9
30  27  24
30  24  26
31  28  25
31  25  27
32  9  10
32  10  11
32  29  9
33  30  26
33  26  29
34  27  30
34  31  27
35  28  31
35  5  28
36  32  11
36  29  32
36  33  29
37  30  33
37  34  30
38  31  34
38  35  31
39  6  5
39  7  6
39  5  35
40  37  33
40  33  36
41  34  37
41  38  34
42  35  38
42  39  35
43  11  12
43  12  13
43  36  11
43  40  36
44  37  40
44  41  37
45  42  38
45  38  41
46  39  42
46  8  7
46  17  8
46  7  39
47  43  13
47  40  43
47  44  40
48  45  41
48  41  44
49  42  45
49  17  46
49  18  17
49  46  42
50  44  47
50  48  44
51  19  18
51  49  45
51  18  49
51  45  48
52  50  47
52  13  14
52  14  15
52  47  13
53  20  19
53  19  51
53  48  50
53  51  48
54  20  53
54  15  16
54  50  52
54  53  50
54  21  20
54  16  21
54  52  15
VARIABLES = X Y Z
ZONE N =14, E =12, DATAPACKING = POINT, ZONETYPE = FETRIANGLE
-5.84197  2.83019  2
-5.84197  2.83019  18
-3.90532  3.10941  18
-1.95587  3.27731  18
-8.88178e-16  3.33333  18
1.95587  3.27731  18
3.90532  3.10941  18
5.84197  2.83019  18
5.84197  2.83019  2
-3.90532  3.10941  2
-1.95587  3.27731  2
-8.88178e-16  3.33333  2
1.95587  3.27731  2
3.90532  3.10941  2
10  1  2
10  2  3
11  3  4
11  10  3
12  4  5
12  5  6
12  11  4
13  12  6
14  6  7
14  13  6
9  7  8
9  14  7
VARIABLES = X Y Z
ZONE N =54, E =85, DATAPACKING = POINT, ZONETYPE = FETRIANGLE
5.5  0.859638  20
5.5761  1.29813  19.9499
5.64837  1.71463  19.8019
5.71321  2.08825  19.5637
5.76736  2.40027  19.247
5.8081  2.63504  18.8678
5.8334  2.78078  18.445
5.84197  2.83019  18
5.5  0.859638  20
5.94504  0.859638  19.9499
6.36777  0.859638  19.8019
6.74698  0.859638  19.5637
7.06366  0.859638  19.247
7.30194  0.859638  18.8678
7.44986  0.859638  18.445
7.5  0.859638  18
6.28802  2.69785  18
6.69142  2.46604  18
7.03035  2.14728  18
7.28646  1.75885  18
7.44588  1.32175  18
5.62658  1.2863  19.9499
5.72174  1.24551  19.9499
5.8049  1.18383  19.9499
5.84191  1.65721  19.8019
5.87155  1.10461  19.9499
6.01694  1.55663  19.8019
5.85468  2.05511  19.5637
5.9181  1.01213  19.9499
6.16399  1.41833  19.8019
6.1213  1.94082  19.5637
5.94202  0.911404  19.9499
6.27511  1.24979  19.8019
6.3543  1.76801  19.5637
6.1161  2.29681  19.247
6.34429  1.06014  19.8019
6.54106  1.54604  19.5637
6.43149  2.11557  19.247
6.01252  2.58715  18.8678
6.67149  1.28692  19.5637
6.69648  1.86636  19.247
6.3978  2.42199  18.8678
6.73852  1.00468  19.5637
6.89671  1.56267  19.247
6.7345  2.17227  18.8678
6.26826  2.65176  18.445
7.02135  1.22093  19.247
7.00438  1.85151  18.8678
6.66155  2.42576  18.445
7.19285  1.47708  18.8678
6.99198  2.115  18.445
7.28971  1.06923  18.8678
7.24167  1.7363  18.445
7.39709  1.31016  18.445
22  2  1
22  3  2
23  22  1
24  23  1
25  3  22
25  22  23
26  1  9
26  24  1
27  23  24
27  25  23
28  4  3
28  5  4
28  3  25
29  26  9
30  27  24
30  24  26
31  28  25
31  25  27
32  9  10
32  10  11
32  29  9
33  30  26
33  26  29
34  27  30
34  31  27
35  28  31
35  5  28
36  32  11
36  29  32
36  33  29
37  30  33
37  34  30
38  31  34
38  35  31
39  6  5
39  7  6
39  5  35
40  37  33
40  33  36
41  34  37
41  38  34
42  35  38
42  39  35
43  11  12
43  12  13
43  36  11
43  40  36
44  37  40
44  41  37
45  42  38
45  38  41
46  39  42
46  8  7
46  17  8
46  7  39
47  43  13
47  40  43
47  44  40
48  45  41
48  41  44
49  42  45
49  17  46
49  18  17
49  46  42
50  44  47
50  48  44
51  19  18
51  20  19
51  49  45
51  18  49
51  45  48
52  13  14
52  14  15
52  50  47
52  47  13
53  20  51
53  48  50
53  51  48
54  15  16
54  50  52
54  52  15
54  20  53
54  21  20
54  16  21
54  53  50
VARIABLES = X Y Z
ZONE N =4, E =2, DATAPACKING = POINT, ZONETYPE = FETRIANGLE
7.5  0  2
7.5  0  18
7.5  0.859638  2
7.5  0.859638  18
3  4  2
1  3  2
VARIABLES = X Y Z
ZONE N =54, E =85, DATAPACKING = POINT, ZONETYPE = FETRIANGLE
5.5  -0.859638  20
5.5761  -1.29813  19.9499
5.64837  -1.71463  19.8019
5.71321  -2.08825  19.5637
5.76736  -2.40027  19.247
5.8081  -2.63504  18.8678
5.8334  -2.78078  18.445
5.84197  -2.83019  18
5.5  -0.859638  20
5.94504  -0.859638  19.9499
6.36777  -0.859638  19.8019
6.74698  -0.859638  19.5637
7.06366  -0.859638  19.247
7.30194  -0.859638  18.8678
7.44986  -0.859638  18.445
7.5  -0.859638  18
6.28802  -2.69785  18
6.69142  -2.46604  18
7.03035  -2.14728  18
7.28646  -1.75885  18
7.44588  -1.32175  18
5.62658  -1.2863  19.9499
5.72174  -1.24551  19.9499
5.8049  -1.18383  19.9499
5.84191  -1.65721  19.8019
5.87155  -1.10461  19.9499
6.01694  -1.55663  19.8019
5.85468  -2.05511  19.5637
5.9181  -1.01213  19.9499
6.16399  -1.41833  19.8019
6.1213  -1.94082  19.5637
5.94202  -0.911404  19.9499
6.27511  -1.24979  19.8019
6.3543  -1.76801  19.5637
6.1161  -2.29681  19.247
6.34429  -1.06014  19.8019
6.54106  -1.54604  19.5637
6.43149  -2.11557  19.247
6.01252  -2.58715  18.8678
6.67149  -1.28692  19.5637
6.69648  -1.86636  19.247
6.3978  -2.42199  18.8678
6.73852  -1.00468  19.5637
6.89671  -1.56267  19.247
6.7345  -2.17227  18.8678
6.26826  -2.65176  18.445
7.02135  -1.22093  19.247
7.00438  -1.85151  18.8678
6.66155  -2.42576  18.445
7.19285  -1.47708  18.8678
6.99198  -2.115  18.445
7.28971  -1.06923  18.8678
7.24167  -1.7363  18.445
7.39709  -1.31016  18.445
22  2  1
22  3  2
23  22  1
24  23  1
25  3  22
25  22  23
26  1  9
26  24  1
27  23  24
27  25  23
28  4  3
28  5  4
28  3  25
29  26  9
30  27  24
30  24  26
31  28  25
31  25  27
32  9  10
32  10  11
32  29  9
33  30  26
33  26  29
34  27  30
34  31  27
35  28  31
35  5  28
36  32  11
36  29  32
36  33  29
37  30  33
37  34  30
38  31  34
38  35  31
39  6  5
39  7  6
39  5  35
40  37  33
40  33  36
41  34  37
41  38  34
42  35  38
42  39  35
43  11  12
43  12  13
43  36  11
43  40  36
44  37  40
44  41  37
45  42  38
45  38  41
46  39  42
46  8  7
46  17  8
46  7  39
47  43  13
47  40  43
47  44  40
48  45  41
48  41  44
49  42  45
49  17  46
49  18  17
49  46  42
50  44  47
50  48  44
51  19  18
51  20  19
51  49  45
51  18  49
51  45  48
52  13  14
52  14  15
52  50  47
52  47  13
53  20  51
53  48  50
53  51  48
54  15  16
54  50  52
54  52  15
54  20  53
54  21  20
54  16  21
54  53  50
VARIABLES = X Y Z
ZONE N =4, E =2, DATAPACKING = POINT, ZONETYPE = FETRIANGLE
7.5  0  2
7.5  0  18
7.5  -0.859638  2
7.5  -0.859638  18
3  4  2
1  3  2
VARIABLES = X Y Z
ZONE N =54, E =85, DATAPACKING = POINT, ZONETYPE = FETRIANGLE
-5.5  -0.859638  20
-5.94504  -0.859638  19.9499
-6.36777  -0.859638  19.8019
-6.74698  -0.859638  19.5637
-7.06366  -0.859638  19.247
-7.30194  -0.859638  18.8678
-7.44986  -0.859638  18.445
-7.5  -0.859638  18
-5.5  -0.859638  20
-5.5761  -1.29813  19.9499
-5.64837  -1.71463  19.8019
-5.71321  -2.08825  19.5637
-5.76736  -2.40027  19.247
-5.8081  -2.63504  18.8678
-5.8334  -2.78078  18.445
-5.84197  -2.83019  18
-7.44588  -1.32175  18
-7.28646  -1.75885  18
-7.03035  -2.14728  18
-6.69142  -2.46604  18
-6.28802  -2.69785  18
-5.94202  -0.911404  19.9499
-5.9181  -1.01213  19.9499
-5.87155  -1.10461  19.9499
-6.34429  -1.06014  19.8019
-5.8049  -1.18383  19.9499
-6.27511  -1.24979  19.8019
-6.73852  -1.00468  19.5637
-5.72174  -1.24551  19.9499
-6.16399  -1.41833  19.8019
-6.67149  -1.28692  19.5637
-5.62658  -1.2863  19.9499
-6.01694  -1.55663  19.8019
-6.54106  -1.54604  19.5637
-7.02135  -1.22093  19.247
-5.84191  -1.65721  19.8019
-6.3543  -1.76801  19.5637
-6.89671  -1.56267  19.247
-7.28971  -1.06923  18.8678
-6.1213  -1.94082  19.5637
-6.69648  -1.86636  19.247
-7.19285  -1.47708  18.8678
-5.85468  -2.05511  19.5637
-6.43149  -2.11557  19.247
-7.00438  -1.85151  18.8678
-7.39709  -1.31016  18.445
-6.1161  -2.29681  19.247
-6.7345  -2.17227  18.8678
-7.24167  -1.7363  18.445
-6.3978  -2.42199  18.8678
-6.99198  -2.115  18.445
-6.01252  -2.58715  18.8678
-6.66155  -2.42576  18.445
-6.26826  -2.65176  18.445
16  21  15
22  2  1
22  3  2
23  22  1
24  23  1
25  3  22
25  22  23
26  1  9
26  24  1
27  23  24
27  25  23
28  4  3
28  5  4
28  3  25
29  26  9
30  27  24
30  24  26
31  28  25
31  25  27
32  9  10
32  10  11
32  29  9
33  30  26
33  26  29
34  27  30
34  31  27
35  28  31
35  5  28
36  32  11
36  29  32
36  33  29
37  30  33
37  34  30
38  31  34
38  35  31
39  6  5
39  7  6
39  5  35
40  37  33
40  33  36
41  34  37
41  38  34
42  35  38
42  39  35
43  11  12
43  12  13
43  36  11
43  40  36
44  37  40
44  41  37
45  42  38
45  38  41
46  8  7
46  17  8
46  18  17
46  7  39
46  39  42
47  43  13
47  40  43
47  44  40
48  41  44
48  45  41
49  42  45
49  18  46
49  46  42
50  44  47
50  48  44
51  18  49
51  45  48
51  19  18
51  49  45
52  13  14
52  14  15
52  50  47
52  47  13
53  20  19
53  51  48
53  48  50
53  19  51
54  21  20
54  20  53
54  52  15
54  50  52
54  53  50
54  15  21
VARIABLES = X Y Z
ZONE N =14, E =12, DATAPACKING = POINT, ZONETYPE = FETRIANGLE
-5.84197  -2.83019  2
-5.84197  -2.83019  18
-3.90532  -3.10941  18
-1.95587  -3.27731  18
-8.88178e-16  -3.33333  18
1.95587  -3.27731  18
3.90532  -3.10941  18
5.84197  -2.83019  18
5.84197  -2.83019  2
-3.90532  -3.10941  2
-1.95587  -3.27731  2
-8.88178e-16  -3.33333  2
1.95587  -3.27731  2
3.90532  -3.10941  2
10  1  2
10  2  3
11  3  4
11  10  3
12  4  5
12  5  6
12  11  4
13  12  6
14  6  7
14  13  6
9  7  8
9  14  7
VARIABLES = X Y Z
ZONE N =4, E =2, DATAPACKING = POINT, ZONETYPE = FETRIANGLE
-7.5  0  2
-7.5  0  18
-7.5  -0.859638  18
-7.5  -0.859638  2
1  2  3
4  1  3
VARIABLES = X Y Z
ZONE N =4, E =2, DATAPACKING = POINT, ZONETYPE = FETRIANGLE
-7.5  0  2
-7.5  0  18
-7.5  0.859638  18
-7.5  0.859638  2
1  2  3
4  1  3
VARIABLES = X Y Z
ZONE N =14, E =12, DATAPACKING = POINT, ZONETYPE = FETRIANGLE
-7.5  0.859638  2
-7.5  0.859638  18
-5.84197  2.83019  2
-6.28802  2.69785  2
-6.69142  2.46604  2
-7.03035  2.14728  2
-7.28646  1.75885  2
-7.44588  1.32175  2
-5.84197  2.83019  18
-6.28802  2.69785  18
-6.69142  2.46604  18
-7.03035  2.14728  18
-7.28646  1.75885  18
-7.44588  1.32175  18
14  2  1
14  1  8
13  8  7
13  14  8
12  7  6
12  13  7
11  6  5
11  12  6
10  4  3
10  5  4
10  11  5
9  10  3
VARIABLES = X Y Z
ZONE N =56, E =84, DATAPACKING = POINT, ZONETYPE = FETRIANGLE
-5.5  0.859638  0
-5.5761  1.29813  0.0501442
-5.64837  1.71463  0.198062
-5.71321  2.08825  0.436337
-5.76736  2.40027  0.75302
-5.8081  2.63504  1.13223
-5.8334  2.78078  1.55496
-5.84197  2.83019  2
-3.90532  3.10941  2
-1.95587  3.27731  2
-8.88178e-16  3.33333  2
1.95587  3.27731  2
3.90532  3.10941  2
5.84197  2.83019  2
5.5  0.859638  0
5.5761  1.29813  0.0501442
5.64837  1.71463  0.198062
5.71321  2.08825  0.436337
5.76736  2.40027  0.75302
5.8081  2.63504  1.13223
5.8334  2.78078  1.55496
-3.67672  1.12251  0
-1.84138  1.28059  0
6.21725e-15  1.33333  0
1.84138  1.28059  0
3.67672  1.12251  0
-3.89959  3.05959  1.55496
-3.88268  2.91264  1.13223
-3.85545  2.67593  0.75302
-3.81925  2.36132  0.436337
-3.77591  1.98459  0.198062
-1.953  3.22724  1.55496
-3.72759  1.56464  0.0501442
-1.94453  3.07957  1.13223
-1.93089  2.84168  0.75302
-1.91276  2.52552  0.436337
-1.89105  2.14693  0.198062
-8.88178e-16  3.28319  1.55496
-1.86686  1.7249  0.0501442
0  3.13527  1.13223
-8.88178e-16  2.897  0.75302
-1.77636e-15  2.58031  0.436337
-8.88178e-16  2.2011  0.198062
1.953  3.22724  1.55496
-8.88178e-16  1.77838  0.0501442
1.94453  3.07957  1.13223
1.93089  2.84168  0.75302
1.91276  2.52552  0.436337
1.89105  2.14693  0.198062
3.89959  3.05959  1.55496
1.86686  1.7249  0.0501442
3.88268  2.91264  1.13223
3.85545  2.67593  0.75302
3.81925  2.36132  0.436337
3.77591  1.98459  0.198062
3.72759  1.56464  0.0501442
9  7  8
15  26  16
27  7  9
28  6  7
28  7  27
29  5  6
29  6  28
30  4  5
30  5  29
31  3  4
31  4  30
32  9  10
32  27  9
33  1  2
33  2  3
33  22  1
33  3  31
34  27  32
34  28  27
35  28  34
35  29  28
36  29  35
36  30  29
37  31  30
37  30  36
38  10  11
38  32  10
39  23  22
39  31  37
39  22  33
39  33  31
40  34  32
40  32  38
41  34  40
41  35  34
41  36  35
42  36  41
43  37  36
43  36  42
43  39  37
44  11  12
44  38  11
44  40  38
45  24  23
45  23  39
45  39  43
46  40  44
47  40  46
47  41  40
47  42  41
48  42  47
49  42  48
49  43  42
50  12  13
50  13  14
50  14  21
50  44  12
51  45  43
51  43  49
51  25  24
51  24  45
52  46  44
52  21  20
52  50  21
52  44  50
53  47  46
53  20  19
53  52  20
53  46  52
54  48  47
54  47  53
54  19  18
54  53  19
55  49  48
55  18  17
55  54  18
55  48  54
56  51  49
56  17  16
56  25  51
56  26  25
56  55  17
56  49  55
56  16  26
VARIABLES = X Y Z
ZONE N =14, E =12, DATAPACKING = POINT, ZONETYPE = FETRIANGLE
5.84197  2.83019  2
5.84197  2.83019  18
6.28802  2.69785  2
6.69142  2.46604  2
7.03035  2.14728  2
7.28646  1.75885  2
7.44588  1.32175  2
7.5  0.859638  2
7.5  0.859638  18
6.28802  2.69785  18
6.69142  2.46604  18
7.03035  2.14728  18
7.28646  1.75885  18
7.44588  1.32175  18
10  2  1
10  1  3
11  3  4
11  4  5
11  10  3
12  11  5
13  5  6
13  12  5
14  6  7
14  7  8
14  13  6
9  14  8
VARIABLES = X Y Z
ZONE N =16, E =14, DATAPACKING = POINT, ZONETYPE = FETRIANGLE
7.5  0  2
7.44986  0  1.55496
7.30194  0  1.13223
7.06366  0  0.75302
6.74698  0  0.436337
6.36777  0  0.198062
5.94504  0  0.0501442
5.5  0  -4.44089e-16
5.5  0.859638  0
5.94504  0.859638  0.0501442
6.36777  0.859638  0.198062
6.74698  0.859638  0.436337
7.06366  0.859638  0.75302
7.30194  0.859638  1.13223
7.44986  0.859638  1.55496
7.5  0.859638  2
15  1  2
15  16  1
14  2  3
14  15  2
13  3  4
13  14  3
12  4  5
12  13  4
11  5  6
11  12  5
10  6  7
10  7  8
10  11  6
9  10  8
VARIABLES = X Y Z
ZONE N =14, E =12, DATAPACKING = POINT, ZONETYPE = FETRIANGLE
5.84197  -2.83019  2
5.84197  -2.83019  18
6.28802  -2.69785  2
6.69142  -2.46604  2
7.03035  -2.14728  2
7.28646  -1.75885  2
7.44588  -1.32175  2
7.5  -0.859638  2
7.5  -0.859638  18
6.28802  -2.69785  18
6.69142  -2.46604  18
7.03035  -2.14728  18
7.28646  -1.75885  18
7.44588  -1.32175  18
10  2  1
10  1  3
11  3  4
11  4  5
11  10  3
12  11  5
13  5  6
13  12  5
14  6  7
14  7  8
14  13  6
9  14  8
VARIABLES = X Y Z
ZONE N =16, E =14, DATAPACKING = POINT, ZONETYPE = FETRIANGLE
5.5  -0.859638  0
5.94504  -0.859638  0.0501442
6.36777  -0.859638  0.198062
6.74698  -0.859638  0.436337
7.06366  -0.859638  0.75302
7.30194  -0.859638  1.13223
7.44986  -0.859638  1.55496
7.5  -0.859638  2
5.5  0  -4.44089e-16
7.5  0  2
7.44986  0  1.55496
7.30194  0  1.13223
7.06366  0  0.75302
6.74698  0  0.436337
6.36777  0  0.198062
5.94504  0  0.0501442
11  8  7
11  10  8
12  7  6
12  11  7
13  6  5
13  12  6
14  5  4
14  13  5
15  4  3
15  14  4
16  2  1
16  3  2
16  15  3
9  16  1
VARIABLES = X Y Z
ZONE N =14, E =12, DATAPACKING = POINT, ZONETYPE = FETRIANGLE
-7.5  -0.859638  2
-7.5  -0.859638  18
-7.44588  -1.32175  2
-7.28646  -1.75885  2
-7.03035  -2.14728  2
-6.69142  -2.46604  2
-6.28802  -2.69785  2
-5.84197  -2.83019  2
-5.84197  -2.83019  18
-7.44588  -1.32175  18
-7.28646  -1.75885  18
-7.03035  -2.14728  18
-6.69142  -2.46604  18
-6.28802  -2.69785  18
10  2  1
10  1  3
11  3  4
11  4  5
11  10  3
12  11  5
13  5  6
13  12  5
14  6  7
14  13  6
9  7  8
9  14  7
VARIABLES = X Y Z
ZONE N =56, E =84, DATAPACKING = POINT, ZONETYPE = FETRIANGLE
-5.5  -0.859638  0
-5.5761  -1.29813  0.0501442
-5.64837  -1.71463  0.198062
-5.71321  -2.08825  0.436337
-5.76736  -2.40027  0.75302
-5.8081  -2.63504  1.13223
-5.8334  -2.78078  1.55496
-5.84197  -2.83019  2
-3.90532  -3.10941  2