VARIABLES = X Y Z
ZONE N =54, E =52, DATAPACKING = POINT, ZONETYPE = FETRIANGLE
19  2.44929e-16  3.5
19.0291  -0.239316  3.5
19.1145  -0.464723  3.5
19.2515  -0.663123  3.5
19.4319  -0.822984  3.5
19.6454  -0.935016  3.5
19.8795  -0.992709  3.5
20.1205  -0.992709  3.5
20.3546  -0.935016  3.5
20.5681  -0.822984  3.5
20.7485  -0.663123  3.5
20.8855  -0.464723  3.5
20.9709  -0.239316  3.5
21  -1.01064e-15  3.5
20.9709  0.239316  3.5
20.8855  0.464723  3.5
20.7485  0.663123  3.5
20.5681  0.822984  3.5
20.3546  0.935016  3.5
20.1205  0.992709  3.5
19.8795  0.992709  3.5
19.6454  0.935016  3.5
19.4319  0.822984  3.5
19.2515  0.663123  3.5
19.1145  0.464723  3.5
19.0291  0.239316  3.5
19  2.44929e-16  3.5
19  2.44929e-16  0
19.0291  -0.239316  0
19.1145  -0.464723  0
19.2515  -0.663123  0
19.4319  -0.822984  0
19.6454  -0.935016  0
19.8795  -0.992709  0
20.1205  -0.992709  0
20.3546  -0.935016  0
20.5681  -0.822984  0
20.7485  -0.663123  0
20.8855  -0.464723  0
20.9709  -0.239316  0
21  -1.01064e-15  0
20.9709  0.239316  0
20.8855  0.464723  0
20.7485  0.663123  0
20.5681  0.822984  0
20.3546  0.935016  0
20.1205  0.992709  0
19.8795  0.992709  0
19.6454  0.935016  0
19.4319  0.822984  0
19.2515  0.663123  0
19.1145  0.464723  0
19.0291  0.239316  0
19  2.44929e-16  0
2  1  28
2  28  29
3  29  30
3  2  29
4  30  31
4  3  30
5  31  32
5  4  31
6  32  33
6  33  34
6  5  32
7  6  34
8  34  35
8  7  34
9  35  36
9  36  37
9  8  35
10  9  37
11  37  38
11  10  37
12  38  39
12  11  38
13  12  39
13  39  40
14  13  40
14  40  41
15  14  41
15  41  42
15  42  43
16  15  43
17  16  43
17  43  44
18  17  44
18  44  45
19  18  45
19  45  46
20  19  46
20  46  47
20  47  48
21  20  48
22  21  48
22  48  49
23  22  49
23  49  50
23  50  51
24  23  51
25  51  52
25  24  51
26  52  53
26  53  54
26  25  52
27  26  54
VARIABLES = X Y Z
ZONE N =26, E =24, DATAPACKING = POINT, ZONETYPE = FETRIANGLE
19  2.44929e-16  3.5
19.0291  -0.239316  3.5
19.1145  -0.464723  3.5
19.2515  -0.663123  3.5
19.4319  -0.822984  3.5
19.6454  -0.935016  3.5
19.8795  -0.992709  3.5
20.1205  -0.992709  3.5
20.3546  -0.935016  3.5
20.5681  -0.822984  3.5
20.7485  -0.663123  3.5
20.8855  -0.464723  3.5
20.9709  -0.239316  3.5
21  -1.01064e-15  3.5
20.9709  0.239316  3.5
20.8855  0.464723  3.5
20.7485  0.663123  3.5
20.5681  0.822984  3.5
20.3546  0.935016  3.5
20.1205  0.992709  3.5
19.8795  0.992709  3.5
19.6454  0.935016  3.5
19.4319  0.822984  3.5
19.2515  0.663123  3.5
19.1145  0.464723  3.5
19.0291  0.239316  3.5
24  22  23
26  24  25
8  9  10
8  10  11
3  1  2
4  5  6
4  6  7
4  7  8
4  11  12
4  12  13
4  13  14
4  14  15
4  15  16
4  16  17
4  17  18
4  18  19
4  19  20
4  20  21
4  21  22
4  26  1
4  24  26
4  1  3
4  22  24
4  8  11
VARIABLES = X Y Z
ZONE N =26, E =24, DATAPACKING = POINT, ZONETYPE = FETRIANGLE
19  2.44929e-16  0
19.0291  -0.239316  0
19.1145  -0.464723  0
19.2515  -0.663123  0
19.4319  -0.822984  0
19.6454  -0.935016  0
19.8795  -0.992709  0
20.1205  -0.992709  0
20.3546  -0.935016  0
20.5681  -0.822984  0
20.7485  -0.663123  0
20.8855  -0.464723  0
20.9709  -0.239316  0
21  -1.01064e-15  0
20.9709  0.239316  0
20.8855  0.464723  0
20.7485  0.663123  0
20.5681  0.822984  0
20.3546  0.935016  0
20.1205  0.992709  0
19.8795  0.992709  0
19.6454  0.935016  0
19.4319  0.822984  0
19.2515  0.663123  0
19.1145  0.464723  0
19.0291  0.239316  0
24  22  23
26  24  25
8  9  10
8  10  11
3  1  2
4  5  6
4  6  7
4  7  8
4  11  12
4  12  13
4  13  14
4  14  15
4  15  16
4  16  17
4  17  18
4  18  19
4  19  20
4  20  21
4  21  22
4  26  1
4  24  26
4  1  3
4  22  24
4  8  11
VARIABLES = X Y Z
ZONE N =9, E =7, DATAPACKING = POINT, ZONETYPE = FETRIANGLE
0  0  3.5
-8.18503e-15  1  3.5
1  -2.44929e-16  3.5
0.974928  0.222521  3.5
0.900969  0.433884  3.5
0.781831  0.62349  3.5
0.62349  0.781831  3.5
0.433884  0.900969  3.5
0.222521  0.974928  3.5
9  2  1
4  1  3
8  9  1
5  1  4
7  8  1
6  1  5
6  7  1
VARIABLES = X Y Z
ZONE N =21, E =19, DATAPACKING = POINT, ZONETYPE = FETRIANGLE
-8.18503e-15  1  3.5
-0.245485  0.9694  3.5
-0.475947  0.879474  3.5
-0.677282  0.735724  3.5
-0.837166  0.546948  3.5
-0.945817  0.324699  3.5
-0.996584  0.0825793  3.5
-0.986361  -0.164595  3.5
-0.915773  -0.401695  3.5
-0.789141  -0.614213  3.5
-0.614213  -0.789141  3.5
-0.401695  -0.915773  3.5
-0.164595  -0.986361  3.5
0.0825793  -0.996584  3.5
0.324699  -0.945817  3.5
0.546948  -0.837166  3.5
0.735724  -0.677282  3.5
0.879474  -0.475947  3.5
0.9694  -0.245485  3.5
1  -2.44929e-16  3.5
0  0  3.5
21  5  6
21  6  7
21  7  8
21  8  9
21  9  10
21  10  11
21  11  12
21  12  13
21  13  14
21  14  15
21  15  16
4  5  21
17  21  16
3  4  21
18  21  17
2  3  21
19  21  18
1  2  21
20  21  19
VARIABLES = X Y Z
ZONE N =11, E =9, DATAPACKING = POINT, ZONETYPE = FETRIANGLE
-8.18503e-15  1  3.5
0  3  3.5
1  -2.44929e-16  3.5
0.974928  0.222521  3.5
0.900969  0.433884  3.5
0.781831  0.62349  3.5
0.62349  0.781831  3.5
0.433884  0.900969  3.5
0.222521  0.974928  3.5
10  0  3.5
10  3  3.5
2  7  6
2  8  7
2  9  8
2  1  9
10  4  3
11  5  4
11  6  5
11  2  6
11  4  10
VARIABLES = X Y Z
ZONE N =40, E =38, DATAPACKING = POINT, ZONETYPE = FETRIANGLE
1  -2.44929e-16  0
1  -2.44929e-16  3.5
-8.18503e-15  1  3.5
-0.245485  0.9694  3.5
-0.475947  0.879474  3.5
-0.677282  0.735724  3.5
-0.837166  0.546948  3.5
-0.945817  0.324699  3.5
-0.996584  0.0825793  3.5
-0.986361  -0.164595  3.5
-0.915773  -0.401695  3.5
-0.789141  -0.614213  3.5
-0.614213  -0.789141  3.5
-0.401695  -0.915773  3.5
-0.164595  -0.986361  3.5
0.0825793  -0.996584  3.5
0.324699  -0.945817  3.5
0.546948  -0.837166  3.5
0.735724  -0.677282  3.5
0.879474  -0.475947  3.5
0.9694  -0.245485  3.5
-8.18503e-15  1  0
-0.245485  0.9694  0
-0.475947  0.879474  0
-0.677282  0.735724  0
-0.837166  0.546948  0
-0.945817  0.324699  0
-0.996584  0.0825793  0
-0.986361  -0.164595  0
-0.915773  -0.401695  0
-0.789141  -0.614213  0
-0.614213  -0.789141  0
-0.401695  -0.915773  0
-0.164595  -0.986361  0
0.0825793  -0.996584  0
0.324699  -0.945817  0
0.546948  -0.837166  0
0.735724  -0.677282  0
0.879474  -0.475947  0
0.9694  -0.245485  0
4  3  22
4  22  23
5  23  24
5  4  23
6  24  25
6  25  26
6  5  24
7  6  26
8  26  27
8  7  26
9  27  28
9  8  27
10  28  29
10  29  30
10  9  28
11  10  30
12  30  31
12  11  30
13  31  32
13  32  33
13  12  31
14  13  33
15  33  34
15  34  35
15  14  33
16  15  35
17  35  36
17  36  37
17  16  35
18  17  37
19  37  38
19  18  37
20  19  38
20  38  39
21  20  39
21  39  40
2  21  40
2  40  1
VARIABLES = X Y Z
ZONE N =4, E =2, DATAPACKING = POINT, ZONETYPE = FETRIANGLE
-8.18503e-15  1  3.5
0  3  3.5
-8.18503e-15  1  0
0  3  0
1  3  4
1  4  2
VARIABLES = X Y Z
ZONE N =4, E =2, DATAPACKING = POINT, ZONETYPE = FETRIANGLE
0  3  0
10  3  0
0  3  3.5
10  3  3.5
2  1  3
4  2  3
VARIABLES = X Y Z
ZONE N =4, E =2, DATAPACKING = POINT, ZONETYPE = FETRIANGLE
10  0  0
10  0  3.5
10  3  0
10  3  3.5
2  1  3
2  3  4
VARIABLES = X Y Z
ZONE N =4, E =2, DATAPACKING = POINT, ZONETYPE = FETRIANGLE
1  -2.44929e-16  0
10  0  0
1  -2.44929e-16  3.5
10  0  3.5
4  2  1
4  1  3
VARIABLES = X Y Z
ZONE N =21, E =19, DATAPACKING = POINT, ZONETYPE = FETRIANGLE
-8.18503e-15  1  0
-0.245485  0.9694  0
-0.475947  0.879474  0
-0.677282  0.735724  0
-0.837166  0.546948  0
-0.945817  0.324699  0
-0.996584  0.0825793  0
-0.986361  -0.164595  0
-0.915773  -0.401695  0
-0.789141  -0.614213  0
-0.614213  -0.789141  0
-0.401695  -0.915773  0
-0.164595  -0.986361  0
0.0825793  -0.996584  0
0.324699  -0.945817  0
0.546948  -0.837166  0
0.735724  -0.677282  0
0.879474  -0.475947  0
0.9694  -0.245485  0
1  -2.44929e-16  0
0  0  0
21  5  6
21  6  7
21  7  8
21  8  9
21  9  10
21  10  11
21  11  12
21  12  13
21  13  14
21  14  15
21  15  16
4  5  21
17  21  16
3  4  21
18  21  17
2  3  21
19  21  18
1  2  21
20  21  19
VARIABLES = X Y Z
ZONE N =11, E =9, DATAPACKING = POINT, ZONETYPE = FETRIANGLE
-8.18503e-15  1  0
0  3  0
1  -2.44929e-16  0
0.974928  0.222521  0
0.900969  0.433884  0
0.781831  0.62349  0
0.62349  0.781831  0
0.433884  0.900969  0
0.222521  0.974928  0
10  0  0
10  3  0
2  7  6
2  8  7
2  9  8
2  1  9
10  4  3
11  5  4
11  6  5
11  2  6
11  4  10
VARIABLES = X Y Z
ZONE N =9, E =7, DATAPACKING = POINT, ZONETYPE = FETRIANGLE
0  0  0
-8.18503e-15  1  0
1  -2.44929e-16  0
0.974928  0.222521  0
0.900969  0.433884  0
0.781831  0.62349  0
0.62349  0.781831  0
0.433884  0.900969  0
0.222521  0.974928  0
9  2  1
4  1  3
8  9  1
5  1  4
7  8  1
6  1  5
6  7  1
