VARIABLES = X Y Z
ZONE N =4824, E =9632, DATAPACKING = POINT, ZONETYPE = FETRIANGLE
0  0  0
0  0  0
0  0  0
9.06421e-32  3.33333  8.16431e-16
1.20856e-31  4.44444  1.08857e-15
1.32186e-31  4.86111  1.19063e-15
1.3595e-31  4.99951  1.22453e-15
4.99975  0.000246398  6.035e-20
0  0  0
9.06421e-32  3.33333  8.16431e-16
1.20856e-31  4.44444  1.08857e-15
1.32186e-31  4.86111  1.19063e-15
1.3595e-31  4.99951  1.22453e-15
4.99975  0.000246398  6.035e-20
-1.88828e-16  4.10613  -1.70082
-2.09942e-16  4.56526  -1.89099
-3.87923e-16  3.4941  -3.4941
-3.48909e-16  3.1427  -3.1427
-4.55872e-16  1.70082  -4.10613
-5.06846e-16  1.89099  -4.56526
-5.48606e-16  5.48606e-16  -4.9414
-4.93432e-16  4.93432e-16  -4.44444
-5.06846e-16  -1.89099  -4.56526
-4.55872e-16  -1.70082  -4.10613
-3.87923e-16  -3.4941  -3.4941
-3.48909e-16  -3.1427  -3.1427
-2.09942e-16  -4.56526  -1.89099
-1.88828e-16  -4.10613  -1.70082
-6.71848e-32  -4.9414  -6.05147e-16
-6.0428e-32  -4.44444  -5.44287e-16
2.09942e-16  -4.56526  1.89099
1.88828e-16  -4.10613  1.70082
3.87923e-16  -3.4941  3.4941
3.48909e-16  -3.1427  3.1427
5.06846e-16  -1.89099  4.56526
4.55872e-16  -1.70082  4.10613
5.48606e-16  -1.09721e-15  4.9414
4.93432e-16  -9.86865e-16  4.44444
5.06846e-16  1.89099  4.56526
4.55872e-16  1.70082  4.10613
3.48909e-16  3.1427  3.1427
1.88828e-16  4.10613  1.70082
3.87923e-16  3.4941  3.4941
2.09942e-16  4.56526  1.89099
4.99975  0.000227642  -9.42923e-05
4.99975  0.000174229  -0.000174229
4.99975  9.42923e-05  -0.000227642
4.99975  5.55112e-16  -0.000246398
4.99975  -9.42923e-05  -0.000227642
4.99975  -0.000174229  -0.000174229
4.99975  -0.000227642  -9.42923e-05
4.99975  -0.000246398  -1.1102e-15
4.99975  -0.000227642  9.42923e-05
4.99975  -0.000174229  0.000174229
4.99975  -9.42923e-05  0.000227642
4.99975  -5.55139e-16  0.000246398
4.99975  9.42923e-05  0.000227642
4.99975  0.000174229  0.000174229
4.99975  0.000227642  9.42923e-05
-8.42309e-17  3.81416  -0.758685
-1.65225e-16  3.59286  -1.48821
-2.39869e-16  3.23349  -2.16055
-3.05296e-16  2.74986  -2.74986
-3.5899e-16  2.16055  -3.23349
-3.98888e-16  1.48821  -3.59286
0.664024  3.60523  -2.40894
0.182276  4.451  -1.84366
0.182276  3.40665  -3.40665
0.572639  4.34229  -0.863735
1.14577  2.72535  -2.72535
1.14577  3.56084  -1.47495
0.664024  2.40894  -3.60523
1.14577  1.47495  -3.56084
0.182276  1.84366  -4.451
0.664024  0.845907  -4.25266
0.182276  5.55112e-16  -4.81772
1.14577  5.55112e-16  -3.85423
0.664024  -0.845907  -4.25266
0.182276  -1.84366  -4.451
1.14577  -1.47495  -3.56084
0.664024  -2.40894  -3.60523
0.182276  -3.40665  -3.40665
1.14577  -2.72535  -2.72535
0.664024  -3.60523  -2.40894
1.14577  -3.56084  -1.47495
0.182276  -4.451  -1.84366
0.664024  -4.25266  -0.845907
1.14577  -3.85423  -7.26419e-16
0.182276  -4.81772  -6.30474e-16
3.5899e-16  2.16055  3.23349
3.98888e-16  1.48821  3.59286
3.05296e-16  2.74986  2.74986
3.07276  1.89021  -0.375985
0.664024  -4.25266  0.845907
1.14577  -3.56084  1.47495
0.182276  -4.451  1.84366
2.39869e-16  3.23349  2.16055
1.65225e-16  3.59286  1.48821
3.07276  1.60244  -1.07072
0.664024  -3.60523  2.40894
1.14577  -2.72535  2.72535
0.182276  -3.40665  3.40665
8.42309e-17  3.81416  0.758685
3.07276  1.07072  -1.60244
0.664024  -2.40894  3.60523
0.182276  -1.84366  4.451
1.14577  -1.47495  3.56084
3.07276  0.375985  -1.89021
0.664024  -0.845907  4.25266
0.182276  -1.08999e-15  4.81772
1.14577  -9.83017e-16  3.85423
3.07276  -0.375985  -1.89021
0.664024  0.845907  4.25266
0.182276  1.84366  4.451
1.14577  1.47495  3.56084
3.07276  -1.07072  -1.60244
0.664024  2.40894  3.60523
0.182276  3.40665  3.40665
1.14577  2.72535  2.72535
3.07276  -1.60244  -1.07072
0.664024  3.60523  2.40894
0.182276  4.451  1.84366
1.14577  3.56084  1.47495
0.572639  4.34229  0.863735
3.07276  -1.89021  -0.375985
3.07276  -1.89021  0.375985
3.07276  -1.60244  1.07072
3.07276  -1.07072  1.60244
3.07276  -0.375985  1.89021
3.07276  0.375985  1.89021
3.07276  1.07072  1.60244
3.07276  1.60244  1.07072
3.07276  1.89021  0.375985
-1.16379e-16  3.45562  -1.04825
-1.53423e-16  3.33623  -1.38191
-1.88989e-16  3.18472  -1.70227
-5.36578e-17  4.90709  -0.483307
-1.60205e-16  4.75693  -1.443
0.286073  4.69123  -0.462046
0.0908917  4.81478  -0.95772
-4.42674e-16  -1.20952  -3.98725
-4.60365e-16  -0.408405  -4.1466
0.0869304  3.79785  -3.11682
0.0869304  4.33294  -2.316
-4.07971e-16  -1.96415  -3.67467
0.0869304  3.11682  -3.79785
0.00162087  3.53439  -3.53439
0.0869304  2.316  -4.33294
0.0869304  1.42619  -4.70151
0.00162087  1.9128  -4.6179
0.0869304  0.481565  -4.88941
0.0869304  -0.481565  -4.88941
0.00162087  5.55112e-16  -4.99838
0.0869304  -1.42619  -4.70151
1.53613  3.44719  -0.339518
0.0869304  -2.316  -4.33294
0.00162087  -1.9128  -4.6179
0.0869304  -3.11682  -3.79785
0.0869304  -3.79785  -3.11682
0.00162087  -3.53439  -3.53439
0.0869304  -4.33294  -2.316
0.0869304  -4.70151  -1.42619
0.00162087  -4.6179  -1.9128
4.07971e-16  -1.96415  3.67467
0.0869304  -4.88941  -0.481565
4.42674e-16  -1.20952  3.98725
0.0869304  -4.88941  0.481565
0.00162087  -4.99838  -6.12485e-16
4.60365e-16  -0.408405  4.1466
0.0869304  -4.70151  1.42619
0.0869304  -4.33294  2.316
0.00162087  -4.6179  1.9128
0.0869304  -3.79785  3.11682
1.88989e-16  3.18472  1.70227
1.53423e-16  3.33623  1.38191
0.0869304  -3.11682  3.79785
0.00162087  -3.53439  3.53439
1.16379e-16  3.45562  1.04825
0.0869304  -2.316  4.33294
0.0869304  -1.42619  4.70151
0.00162087  -1.9128  4.6179
0.0869304  -0.481565  4.88941
0.0869304  0.481565  4.88941
0.00162087  -1.11004e-15  4.99838
0.0869304  1.42619  4.70151
0.0869304  2.316  4.33294
0.00162087  1.9128  4.6179
0.0869304  3.11682  3.79785
0.0869304  3.79785  3.11682
0.00162087  3.53439  3.53439
0.0869304  4.33294  2.316
5.36578e-17  4.90709  0.483307
1.60205e-16  4.75693  1.443
0.286073  4.69123  0.462046
0.0908917  4.81478  0.95772
1.53613  3.44719  0.339518
-2.36036e-17  0.513266  -0.212602
-8.72274e-17  0.785674  -0.785674
-7.82576e-17  0.858901  -0.704881
-5.6984e-17  0.212602  -0.513266
-1.23358e-16  3.70074e-16  -1.11111
-1.63188e-16  0.785661  -1.46987
-1.58712e-16  0.856838  -1.42955
-1.70952e-16  0.637806  -1.5398
-2.41976e-16  0.433534  -2.17952
-1.70952e-16  -0.637806  -1.5398
-8.72274e-17  -0.785674  -0.785674
-2.38068e-16  1.28526  -2.14432
-3.13412e-16  1.16931  -2.82297
-1.95644e-16  2.14725  -1.7622
-1.14285e-16  2.87694  -1.02939
-8.31162e-17  2.09232  -0.748644
-9.36674e-17  3.36816  -0.843681
-2.79593e-16  2.77857  -2.51835
-3.52947e-16  -0.31311  -3.17906
-2.95116e-16  -0.806346  -2.65817
-2.8492e-16  -1.06301  -2.56633
-3.07706e-16  -1.8519  -2.77157
-3.9321e-16  -0.704493  -3.54172
-8.0893e-17  4.91195  -0.72862
-5.40343e-17  4.94153  -0.486698
2.36036e-17  0.513266  0.212602
7.82576e-17  0.858901  0.704881
8.72274e-17  0.785674  0.785674
2.0779e-17  0.52308  0.187161
-1.34497e-16  4.83636  -1.21144
0.14279  4.85136  -0.238332
0.0451995  4.93094  -0.485655
-1.86874e-16  4.70427  -1.68322
-2.11648e-16  4.60235  -1.90636
-4.46635e-16  -0.197634  -4.02293
-4.72839e-16  0.631756  -4.25895
-4.23457e-16  0.758685  -3.81416
0.0392574  4.25497  -2.55033
0.0417665  4.37277  -2.3373
0.0392574  3.98451  -2.95511
0.0417665  3.83277  -3.14547
1.63188e-16  0.785661  1.46987
2.41976e-16  0.433534  2.17952
1.70952e-16  0.637806  1.5398
0.0392574  2.95511  -3.98451
0.0417665  3.14547  -3.83277
0.767821  4.22708  -0.207663
0.0392574  2.55033  -4.25497
0.0417665  2.3373  -4.37277
0.0392574  1.20536  -4.81208
0.0417665  1.4393  -4.74473
0.0392574  0.727892  -4.90705
-3.21014e-16  -3.19021  -2.89143
-1.65225e-16  -3.59286  -1.48821
-2.39869e-16  -3.23349  -2.16055
0.0417665  0.485992  -4.93436
0.0392574  -0.727892  -4.90705
0.0417665  -0.485992  -4.93436
0.0392574  -1.20536  -4.81208
0.0417665  -1.4393  -4.74473
2.38068e-16  1.28526  2.14432
1.95644e-16  2.14725  1.7622
3.13412e-16  1.16931  2.82297
0.0392574  -2.55033  -4.25497
0.0417665  -2.3373  -4.37277
1.34095  3.30774  -1.56444
0.0392574  -2.95511  -3.98451
3.52947e-16  -0.31311  3.17906
2.8492e-16  -1.06301  2.56633
2.95116e-16  -0.806346  2.65817
3.07706e-16  -1.8519  2.77157
0.0417665  -3.14547  -3.83277
1.34095  2.93897  -2.17969
0.0392574  -3.98451  -2.95511
0.0417665  -3.83277  -3.14547
0.0392574  -4.25497  -2.55033
0.0417665  -4.37277  -2.3373
3.9321e-16  -0.704493  3.54172
0.0392574  -4.81208  -1.20536
0.0417665  -4.74473  -1.4393
3.21014e-16  -3.19021  2.89143
1.65225e-16  -3.59286  1.48821
2.39869e-16  -3.23349  2.16055
0.0392574  -4.90705  -0.727892
0.0417665  -4.93436  -0.485992
2.30445  2.53798  -0.908104
0.0392574  -4.90705  0.727892
0.0417665  -4.93436  0.485992
4.46635e-16  -0.197634  4.02293
1.14285e-16  2.87694  1.02939
8.31162e-17  2.09232  0.748644
0.0392574  -4.81208  1.20536
0.0417665  -4.74473  1.4393
2.30445  2.31205  -1.38579
1.91822  2.24928  -2.10668
0.0392574  -4.25497  2.55033
0.0417665  -4.37277  2.3373
0.0392574  -3.98451  2.95511
2.56055  2.07158  -1.28819
0.0417665  -3.83277  3.14547
2.79593e-16  2.77857  2.51835
4.72839e-16  0.631756  4.25895
4.23457e-16  0.758685  3.81416
9.36674e-17  3.36816  0.843681
0.0392574  -2.95511  3.98451
0.0417665  -3.14547  3.83277
0.0392574  -2.55033  4.25497
0.0417665  -2.3373  4.37277
0.0392574  -1.20536  4.81208
0.0417665  -1.4393  4.74473
0.0392574  -0.727892  4.90705
0.0417665  -0.485992  4.93436
0.0392574  0.727892  4.90705
0.0417665  0.485992  4.93436
0.0392574  1.20536  4.81208
0.0417665  1.4393  4.74473
0.0392574  2.55033  4.25497
0.0417665  2.3373  4.37277
0.0392574  2.95511  3.98451
0.0417665  3.14547  3.83277
0.0392574  3.98451  2.95511
0.0417665  3.83277  3.14547
0.0392574  4.25497  2.55033
0.0417665  4.37277  2.3373
1.86874e-16  4.70427  1.68322
2.11648e-16  4.60235  1.90636
8.0893e-17  4.91195  0.72862
1.34497e-16  4.83636  1.21144
5.40343e-17  4.94153  0.486698
0.14279  4.85136  0.238332
0.0451995  4.93094  0.485655
0.767821  4.22708  0.207663
1.34095  2.93897  2.17969
1.34095  3.30774  1.56444
2.30445  2.53798  0.908104
2.30445  2.31205  1.38579
1.91822  2.24928  2.10668
2.56055  2.07158  1.28819
-1.71335e-17  0.230964  -0.154325
-2.0779e-17  0.52308  -0.187161
-2.10895e-17  1.09475  -0.189958
-9.07409e-17  -0.162575  -0.817321
-2.56421e-17  -0.154325  -0.230964
-1.36951e-16  1.50308  -1.23354
-2.36036e-17  -0.513266  -0.212602
-1.85037e-16  9.25186e-16  -1.66667
-2.46716e-16  7.40149e-16  -2.22222
-1.86816e-16  1.4515  -1.68269
-1.66297e-16  1.82516  -1.49787
-1.30841e-16  -1.17851  -1.17851
-7.08107e-17  -1.5398  -0.637806
-1.74455e-16  -1.57135  -1.57135
-1.24671e-31  -1.11111  -1.12294e-15
1.80495e-17  -0.817321  0.162575
8.72274e-17  -0.785674  0.785674
-1.97036e-16  2.65608  -1.77474
-2.27936e-16  -0.850408  -2.05307
-2.90772e-16  0.323028  -2.61904
-1.9422e-16  2.91866  -1.74938
-2.74207e-16  2.23853  -2.46984
3.00825e-17  -1.3622  0.270959
-3.23425e-16  0.143114  -2.91315
-3.44075e-16  1.02382  -3.09915
-9.44142e-17  -2.05307  -0.850408
-1.39778e-31  -2.22222  -1.25901e-15
-1.18018e-16  -2.56633  -1.06301
2.56421e-17  0.154325  0.230964
-3.58106e-16  1.6236  -3.22553
-3.7153e-16  0.926086  -3.34644
5.6984e-17  0.212602  0.513266
4.21155e-17  -1.90708  0.379342
-2.18068e-16  -1.96419  -1.96419
-2.61682e-16  -2.35702  -2.35702
9.07409e-17  0.162575  0.817321
5.6984e-17  -0.212602  0.513266
1.23358e-16  -1.23358e-15  1.11111
1.70952e-16  -0.637806  1.5398
9.44142e-17  -2.05307  0.850408
1.74455e-16  -1.57135  1.57135
1.18018e-16  -2.56633  1.06301
0.0110624  4.98293  -0.244796
0.0223533  4.97165  -0.244242
0.0109303  4.98757  -0.122438
-6.77187e-17  4.94539  -0.609956
-5.42226e-17  4.95874  -0.488394
0.0711487  4.92737  -0.12096
-9.45828e-17  4.90977  -0.851926
-1.21459e-16  4.87185  -1.09401
1.51235e-16  0.270959  1.3622
1.58712e-16  0.856838  1.42955
-1.74723e-31  -2.77778  -1.57376e-15
-3.74013e-31  -3.33333  -3.36881e-15
0.016015  4.80345  -1.32929
0.0409739  4.81041  -1.20495
0.018392  4.83232  -1.21043
0.0186562  4.76685  -1.44601
1.85037e-16  -3.70074e-16  1.66667
2.46716e-16  -2.46716e-15  2.22222
0.0893074  4.58164  -1.76733
0.0204391  4.44786  -2.23887
0.0191846  4.39269  -2.34794
0.383664  4.61495  -0.113291
0.01793  4.33483  -2.45565
-3.46169e-16  -2.08339  -3.11801
-1.41621e-16  -3.0796  -1.27561
0.0154209  4.07532  -2.87016
0.0154209  4.21124  -2.66674
0.01793  3.9276  -3.06513
0.0191846  3.85022  -3.1598
2.27936e-16  -0.850408  2.05307
0.0204391  3.77057  -3.25251
0.0204391  3.25251  -3.77057
0.0191846  3.1598  -3.85022
0.01793  3.06513  -3.9276
0.0154209  2.66674  -4.21124
0.0154209  2.87016  -4.07532
-3.31333e-16  -2.70489  -2.98439
2.18068e-16  -1.96419  1.96419
2.61682e-16  -2.35702  2.35702
0.01793  2.45565  -4.33483
2.10895e-17  1.09475  0.189958
0.0191846  2.34794  -4.39269
0.0204391  2.23887  -4.44786
0.715923  4.06785  -1.34384
0.0204391  1.562  -4.72823
0.0191846  1.44585  -4.76634
0.01793  1.32878  -4.8016
1.41621e-16  -3.0796  1.27561
0.0154209  0.852173  -4.91119
0.0154209  1.09213  -4.86346
0.01793  0.609859  -4.9446
0.0191846  0.488205  -4.95683
0.0204391  0.366319  -4.96607
1.36951e-16  1.50308  1.23354
0.0204391  -0.366319  -4.96607
0.0191846  -0.488205  -4.95683
-2.44612e-31  -3.88889  -2.20327e-15
0.01793  -0.609859  -4.9446
2.90772e-16  0.323028  2.61904
0.0154209  -1.09213  -4.86346
0.0154209  -0.852173  -4.91119
1.86816e-16  1.4515  1.68269
0.01793  -1.32878  -4.8016
0.0191846  -1.44585  -4.76634
0.0204391  -1.562  -4.72823
0.0204391  -2.23887  -4.44786
3.23425e-16  0.143114  2.91315
0.0191846  -2.34794  -4.39269
0.01793  -2.45565  -4.33483
0.0154209  -2.66674  -4.21124
1.66297e-16  1.82516  1.49787
0.0154209  -2.87016  -4.07532
0.01793  -3.06513  -3.9276
0.0191846  -3.1598  -3.85022
0.0204391  -3.25251  -3.77057
0.0204391  -3.77057  -3.25251
0.0191846  -3.85022  -3.1598
0.01793  -3.9276  -3.06513
3.46169e-16  -2.08339  3.11801
1.24336  2.3112  -2.96153
0.0154209  -4.21124  -2.66674
0.0154209  -4.07532  -2.87016
0.01793  -4.33483  -2.45565
1.72718  2.98109  -1.35072
0.0191846  -4.39269  -2.34794
0.0204391  -4.44786  -2.23887
3.31333e-16  -2.70489  2.98439
3.44075e-16  1.02382  3.09915
0.0204391  -4.72823  -1.562
0.0191846  -4.76634  -1.44585
0.01793  -4.8016  -1.32878
1.532  1.97364  -2.85163
0.0154209  -4.91119  -0.852173
0.0154209  -4.86346  -1.09213
3.7153e-16  0.926086  3.34644
2.74207e-16  2.23853  2.46984
0.01793  -4.9446  -0.609859
0.0191846  -4.95683  -0.488205
0.0204391  -4.96607  -0.366319
1.532  1.37939  -3.18187
1.40326  0.508339  -3.56064
0.0204391  -4.96607  0.366319
0.0191846  -4.95683  0.488205
0.01793  -4.9446  0.609859
1.532  0.732135  -3.38984
1.97036e-16  2.65608  1.77474
0.0154209  -4.86346  1.09213
0.0154209  -4.91119  0.852173
3.58106e-16  1.6236  3.22553
0.01793  -4.8016  1.32878
0.0191846  -4.76634  1.44585
0.0204391  -4.72823  1.562
0.0204391  -4.44786  2.23887
0.0191846  -4.39269  2.34794
0.01793  -4.33483  2.45565
1.9422e-16  2.91866  1.74938
0.0154209  -4.21124  2.66674
0.0154209  -4.07532  2.87016
0.01793  -3.9276  3.06513
0.0191846  -3.85022  3.1598
0.0204391  -3.77057  3.25251
0.0204391  -3.25251  3.77057
0.0191846  -3.1598  3.85022
0.01793  -3.06513  3.9276
0.0154209  -2.87016  4.07532
0.0154209  -2.66674  4.21124
0.01793  -2.45565  4.33483
2.64592  1.59983  -1.72691
0.0191846  -2.34794  4.39269
0.0204391  -2.23887  4.44786
0.0204391  -1.562  4.72823
2.68861  1.33092  -1.88976
2.49549  1.2166  -2.18917
0.0191846  -1.44585  4.76634
0.01793  -1.32878  4.8016
0.0154209  -1.09213  4.86346
0.0154209  -0.852173  4.91119
2.81666  1.24254  -1.79529
0.01793  -0.609859  4.9446
0.0191846  -0.488205  4.95683
0.0204391  -0.366319  4.96607
2.90203  1.18453  -1.73158
2.68792  0.622737  -2.22664
2.49549  0.766136  -2.38445
2.49549  0.286233  -2.4881
0.0204391  0.366319  4.96607
0.0191846  0.488205  4.95683
0.01793  0.609859  4.9446
0.0154209  1.09213  4.86346
0.0154209  0.852173  4.91119
0.01793  1.32878  4.8016
2.68792  0.0252204  -2.31195
0.0191846  1.44585  4.76634
0.0204391  1.562  4.72823
0.0204391  2.23887  4.44786
0.0191846  2.34794  4.39269
0.01793  2.45565  4.33483
0.0154209  2.87016  4.07532
0.0154209  2.66674  4.21124
0.01793  3.06513  3.9276
0.0191846  3.1598  3.85022
0.0204391  3.25251  3.77057
0.0204391  3.77057  3.25251
0.0191846  3.85022  3.1598
0.01793  3.9276  3.06513
0.0154209  4.21124  2.66674
0.0154209  4.07532  2.87016
0.01793  4.33483  2.45565
0.0191846  4.39269  2.34794
0.0204391  4.44786  2.23887
0.0893074  4.58164  1.76733
0.0409739  4.81041  1.20495
0.016015  4.80345  1.32929
0.0186562  4.76685  1.44601
0.018392  4.83232  1.21043
9.45828e-17  4.90977  0.851926
1.21459e-16  4.87185  1.09401
6.77187e-17  4.94539  0.609956
5.42226e-17  4.95874  0.488394
0.0109303  4.98757  0.122438
0.0223533  4.97165  0.244242
0.0110624  4.98293  0.244796
0.0711487  4.92737  0.12096
1.40326  0.508339  3.56064
0.383664  4.61495  0.113291
0.715923  4.06785  1.34384
1.24336  2.3112  2.96153
1.532  1.37939  3.18187
1.532  0.732135  3.38984
1.532  1.97364  2.85163
1.72718  2.98109  1.35072
2.68792  0.0252204  2.31195
2.68792  0.622737  2.22664
2.49549  0.286233  2.4881
2.49549  0.766136  2.38445
2.49549  1.2166  2.18917
2.68861  1.33092  1.88976
2.64592  1.59983  1.72691
2.81666  1.24254  1.79529
2.90203  1.18453  1.73158
-1.3599e-17  0.0654718  -0.122489
-7.06337e-17  1.38901  -0.636212
4.5342e-18  -0.41466  0.0408405
2.36036e-17  -0.513266  0.212602
1.71335e-17  -0.230964  0.154325
-2.68192e-16  1.98248  -2.41566
-1.04834e-31  -1.66667  -9.44256e-16
7.08107e-17  -1.5398  0.637806
1.30841e-16  -1.17851  1.17851
0.00535084  4.99126  -0.183839
0.035328  4.9643  -0.0609242
0.0111284  4.97948  -0.305921
0.00548295  4.98512  -0.306267
-6.1081e-17  4.96104  -0.550169
0.0225515  4.95909  -0.427052
0.0140338  4.95559  -0.549564
0.0141659  4.94048  -0.670997
-1.01442e-16  4.90751  -0.913707
-1.14898e-16  4.88852  -1.03491
0.0082895  4.85663  -1.15338
0.191586  4.80805  -0.0590066
0.0059125  4.82917  -1.27282
0.0035355  4.79876  -1.39161
0.0428229  4.64656  -1.72717
0.0441435  4.62378  -1.78359
-4.09962e-16  -1.21987  -3.69261
0.0085209  4.43063  -2.29877
0.00726635  4.37398  -2.40742
0.0060118  4.31467  -2.51466
0.00350269  4.12006  -2.82668
0.00350269  4.18819  -2.72471
0.0060118  3.9744  -3.02391
0.00726635  3.89801  -3.11976
0.0085209  3.81932  -3.21367
0.0085209  3.21367  -3.81932
0.00726635  3.11976  -3.89801
0.0060118  3.02391  -3.9744
0.00350269  2.72471  -4.18819
0.00350269  2.82668  -4.12006
0.0060118  2.51466  -4.31467
0.00726635  2.40742  -4.37398
0.0085209  2.29877  -4.43063
0.0085209  1.50746  -4.75841
0.00726635  1.39057  -4.79517
0.0060118  1.2728  -4.82907
7.06337e-17  1.38901  0.636212
0.00350269  0.914558  -4.91208
0.00350269  1.03483  -4.88816
0.0060118  0.672094  -4.94856
0.00726635  0.55031  -4.96231
0.0085209  0.428255  -4.97307
0.0085209  -0.428255  -4.97307
0.00726635  -0.55031  -4.96231
0.0060118  -0.672094  -4.94856
0.00350269  -1.03483  -4.88816
0.00350269  -0.914558  -4.91208
0.0060118  -1.2728  -4.82907
0.00726635  -1.39057  -4.79517
0.0085209  -1.50746  -4.75841
0.0085209  -2.29877  -4.43063
0.00726635  -2.40742  -4.37398
0.0060118  -2.51466  -4.31467
0.00350269  -2.82668  -4.12006
0.00350269  -2.72471  -4.18819
0.0060118  -3.02391  -3.9744
0.00726635  -3.11976  -3.89801
0.0085209  -3.21367  -3.81932
0.0085209  -3.81932  -3.21367
0.00726635  -3.89801  -3.11976
0.0060118  -3.9744  -3.02391
0.00350269  -4.18819  -2.72471
0.00350269  -4.12006  -2.82668
0.0060118  -4.31467  -2.51466
0.00726635  -4.37398  -2.40742
0.0085209  -4.43063  -2.29877
1.62959  2.58778  -2.15941
0.0085209  -4.75841  -1.50746
0.00726635  -4.79517  -1.39057
0.0060118  -4.82907  -1.2728
4.09962e-16  -1.21987  3.69261
0.00350269  -4.91208  -0.914558
0.00350269  -4.88816  -1.03483
2.68192e-16  1.98248  2.41566
0.0060118  -4.94856  -0.672094
0.00726635  -4.96231  -0.55031
0.0085209  -4.97307  -0.428255
0.0085209  -4.97307  0.428255
0.00726635  -4.96231  0.55031
0.0060118  -4.94856  0.672094
1.27451  -0.466121  -3.69621
0.00350269  -4.88816  1.03483
0.00350269  -4.91208  0.914558
0.0060118  -4.82907  1.2728
0.00726635  -4.79517  1.39057
0.0085209  -4.75841  1.50746
0.0085209  -4.43063  2.29877
0.00726635  -4.37398  2.40742
0.0060118  -4.31467  2.51466
1.78879  0.566243  -3.16089
0.00350269  -4.12006  2.82668
0.00350269  -4.18819  2.72471
1.9819  1.12449  -2.80079
2.04559  -0.161058  -2.95002
0.0060118  -3.9744  3.02391
0.00726635  -3.89801  3.11976
0.0085209  -3.81932  3.21367
2.1531  1.17022  -2.59527
0.0085209  -3.21367  3.81932
0.00726635  -3.11976  3.89801
1.59568  -1.38805  -3.10849
0.0060118  -3.02391  3.9744
1.44571  -2.21462  -2.78001
0.00350269  -2.82668  4.12006
0.00350269  -2.72471  4.18819
0.0060118  -2.51466  4.31467
0.00726635  -2.40742  4.37398
0.0085209  -2.29877  4.43063
1.59568  -1.96782  -2.77797
2.27054  0.612544  -2.65984
0.0085209  -1.50746  4.75841
0.00726635  -1.39057  4.79517
0.0060118  -1.2728  4.82907
0.00350269  -0.914558  4.91208
0.00350269  -1.03483  4.88816
0.0060118  -0.672094  4.94856
0.00726635  -0.55031  4.96231
0.0085209  -0.428255  4.97307
0.0085209  0.428255  4.97307
0.00726635  0.55031  4.96231
0.0060118  0.672094  4.94856
0.00350269  1.03483  4.88816
0.00350269  0.914558  4.91208
0.0060118  1.2728  4.82907
0.00726635  1.39057  4.79517
0.0085209  1.50746  4.75841
0.0085209  2.29877  4.43063
0.00726635  2.40742  4.37398
0.0060118  2.51466  4.31467
0.00350269  2.82668  4.12006
0.00350269  2.72471  4.18819
0.0060118  3.02391  3.9744
0.00726635  3.11976  3.89801
0.0085209  3.21367  3.81932
2.88034  -0.604233  -2.03171
2.60209  -0.803726  -2.2592
0.0085209  3.81932  3.21367
0.00726635  3.89801  3.11976
0.0060118  3.9744  3.02391
0.00350269  4.18819  2.72471
0.00350269  4.12006  2.82668
0.0060118  4.31467  2.51466
2.88034  -0.98899  -1.8748
2.55917  -1.20887  -2.12044
0.00726635  4.37398  2.40742
0.0085209  4.43063  2.29877
2.94448  -1.02128  -1.78386
2.73037  -1.63378  -1.57543
2.55917  -1.59932  -1.84386
1.44571  -2.21462  2.78001
0.0441435  4.62378  1.78359
0.0428229  4.64656  1.72717
0.0035355  4.79876  1.39161
0.0059125  4.82917  1.27282
0.0082895  4.85663  1.15338
1.01442e-16  4.90751  0.913707
1.14898e-16  4.88852  1.03491
6.1081e-17  4.96104  0.550169
0.0141659  4.94048  0.670997
0.0140338  4.95559  0.549564
0.0225515  4.95909  0.427052
1.27451  -0.466121  3.69621
0.0111284  4.97948  0.305921
0.00548295  4.98512  0.306267
0.00535084  4.99126  0.183839
0.035328  4.9643  0.0609242
1.59568  -1.38805  3.10849
1.59568  -1.96782  2.77797
0.191586  4.80805  0.0590066
1.78879  0.566243  3.16089
2.73037  -1.63378  1.57543
2.55917  -1.20887  2.12044
2.55917  -1.59932  1.84386
1.9819  1.12449  2.80079
2.04559  -0.161058  2.95002
1.62959  2.58778  2.15941
2.27054  0.612544  2.65984
2.1531  1.17022  2.59527
2.88034  -0.98899  1.8748
2.60209  -0.803726  2.2592
2.94448  -1.02128  1.78386
2.88034  -0.604233  2.03171
-1.55329e-17  -0.154365  -0.139908
1.47558e-17  0.0403173  0.132908
0.0174176  4.98249  -0.0305726
0.00521874  4.99441  -0.0612936
0.00249508  4.99515  -0.153297
0.00256113  4.99283  -0.214581
0.00262718  4.98975  -0.275831
0.00551597  4.98311  -0.336848
0.00269323  4.98593  -0.337038
0.0112275  4.97291  -0.397518
0.0112605  4.97034  -0.42802
2.59436e-06  4.97883  -0.459545
3.56203e-05  4.97589  -0.490082
0.0955464  4.90436  -0.0300932
0.00300709  4.93354  -0.793813
-1.04875e-16  4.90609  -0.944626
-4.30941e-16  -0.23847  -3.88157
-1.11607e-16  4.89659  -1.00526
0.00383252  4.87477  -1.09467
0.00323827  4.86854  -1.12469
0.00204977  4.85553  -1.18463
-1.38068e-16  4.83858  -1.2436
-1.34768e-16  4.84609  -1.21388
-1.44615e-16  4.82181  -1.30258
-1.60852e-16  4.77614  -1.44883
-2.08901e-16  4.62265  -1.88162
-1.99741e-16  4.66401  -1.79911
-2.18314e-16  4.58726  -1.9664
0.0195807  4.6789  -1.70659
0.00749731  4.74052  -1.56606
0.0209013  4.65637  -1.76342
-2.15415e-16  4.60415  -1.94028
0.0215616  4.64485  -1.79172
0.00475725  4.51565  -2.13574
0.00977545  4.48459  -2.18879
0.00444361  4.50274  -2.16354
0.00381633  4.47641  -2.21892
0.00256178  4.42172  -2.32869
0.0019345  4.39336  -2.38307
0.00130723  4.36433  -2.43711
0.00130723  3.92176  -3.09948
0.0019345  3.88294  -3.14697
0.00256178  3.84355  -3.19398
0.00381633  3.76306  -3.28652
0.00977545  3.73836  -3.3056
0.00475725  3.70123  -3.3546
0.000366315  3.62097  -3.44745
0.00444361  3.72198  -3.33204
-3.89818e-16  3.55452  -3.51117
-3.86976e-16  3.57218  -3.48557
-3.91075e-16  3.52249  -3.52249
-3.94631e-16  3.51117  -3.55452
-3.96592e-16  3.48557  -3.57218
0.00475725  3.3546  -3.70123
0.000366315  3.44745  -3.62097
0.00977545  3.3056  -3.73836
0.00444361  3.33204  -3.72198
0.00381633  3.28652  -3.76306
0.00256178  3.19398  -3.84355
0.0019345  3.14697  -3.88294
0.00130723  3.09948  -3.92176
0.00130723  2.43711  -4.36433
0.0019345  2.38307  -4.39336
0.00256178  2.32869  -4.42172
0.00381633  2.21892  -4.47641
0.00977545  2.18879  -4.48459
0.00475725  2.13574  -4.51565
0.00444361  2.16354  -4.50274
0.000366315  2.02606  -4.57071
-5.11163e-16  1.94028  -4.60415
-5.09288e-16  1.9664  -4.58726
-5.10964e-16  1.90636  -4.60235
-5.13768e-16  1.88364  -4.62761
-5.14492e-16  1.85323  -4.63413
0.00475725  1.68285  -4.70324
0.000366315  1.79934  -4.66462
0.00977545  1.62337  -4.71879
0.00444361  1.65406  -4.71377
0.00381633  1.59629  -4.73431
0.00256178  1.48  -4.77326
0.0019345  1.42149  -4.79166
0.00130723  1.36275  -4.80935
0.00130723  0.581441  -4.96476
0.0019345  0.520407  -4.9709
0.00256178  0.459309  -4.97629
0.00381633  0.336962  -4.98481
0.00977545  0.306004  -4.98083
0.00475725  0.245105  -4.98923
0.00444361  0.275731  -4.98794
0.000366315  0.122697  -4.99813
-5.54689e-16  0.0306567  -4.99619
-5.54066e-16  0.0612467  -4.99058
-5.53063e-16  5.53063e-16  -4.98155
-5.54689e-16  -0.0306567  -4.99619
-5.54066e-16  -0.0612467  -4.99058
0.00475725  -0.245105  -4.98923
0.00977545  -0.306004  -4.98083
0.000366315  -0.122697  -4.99813
0.00444361  -0.275731  -4.98794
0.00381633  -0.336962  -4.98481
0.00256178  -0.459309  -4.97629
0.0019345  -0.520407  -4.9709
0.00130723  -0.581441  -4.96476
0.00130723  -1.36275  -4.80935
0.0019345  -1.42149  -4.79166
0.00256178  -1.48  -4.77326
0.00381633  -1.59629  -4.73431
0.00977545  -1.62337  -4.71879
0.00475725  -1.68285  -4.70324
0.000366315  -1.79934  -4.66462
0.00444361  -1.65406  -4.71377
-5.13768e-16  -1.88364  -4.62761
-5.14492e-16  -1.85323  -4.63413
-5.10964e-16  -1.90636  -4.60235
-5.11163e-16  -1.94028  -4.60415
-5.09288e-16  -1.9664  -4.58726
0.00475725  -2.13574  -4.51565
0.000366315  -2.02606  -4.57071
0.00977545  -2.18879  -4.48459
0.00444361  -2.16354  -4.50274
0.00381633  -2.21892  -4.47641
0.00256178  -2.32869  -4.42172
0.0019345  -2.38307  -4.39336
0.00130723  -2.43711  -4.36433
0.00130723  -3.09948  -3.92176
0.0019345  -3.14697  -3.88294
0.00256178  -3.19398  -3.84355
0.00381633  -3.28652  -3.76306
0.00977545  -3.3056  -3.73836
0.00475725  -3.3546  -3.70123
0.00444361  -3.33204  -3.72198
0.000366315  -3.44745  -3.62097
-3.94631e-16  -3.51117  -3.55452
-3.96592e-16  -3.48557  -3.57218
-3.91075e-16  -3.52249  -3.52249
-3.89818e-16  -3.55452  -3.51117
-3.86976e-16  -3.57218  -3.48557
0.00475725  -3.70123  -3.3546
0.000366315  -3.62097  -3.44745
0.00977545  -3.73836  -3.3056
0.00444361  -3.72198  -3.33204
0.00381633  -3.76306  -3.28652
0.00256178  -3.84355  -3.19398
0.0019345  -3.88294  -3.14697
0.00130723  -3.92176  -3.09948
0.00130723  -4.36433  -2.43711
0.0019345  -4.39336  -2.38307
0.00256178  -4.42172  -2.32869
0.00381633  -4.47641  -2.21892
0.00977545  -4.48459  -2.18879
0.00475725  -4.51565  -2.13574
0.00444361  -4.50274  -2.16354
0.000366315  -4.57071  -2.02606
-2.15415e-16  -4.60415  -1.94028
-2.18314e-16  -4.58726  -1.9664
-2.11648e-16  -4.60235  -1.90636
-2.09126e-16  -4.62761  -1.88364
-2.0575e-16  -4.63413  -1.85323
0.00475725  -4.70324  -1.68285
0.00977545  -4.71879  -1.62337
0.000366315  -4.66462  -1.79934
0.00444361  -4.71377  -1.65406
0.00381633  -4.73431  -1.59629
0.00256178  -4.77326  -1.48
0.0019345  -4.79166  -1.42149
0.00130723  -4.80935  -1.36275
0.00130723  -4.96476  -0.581441
0.0019345  -4.9709  -0.520407
0.00256178  -4.97629  -0.459309
0.00381633  -4.98481  -0.336962
0.00977545  -4.98083  -0.306004
0.00475725  -4.98923  -0.245105
0.000366315  -4.99813  -0.122697
0.00444361  -4.98794  -0.275731
-3.40357e-18  -4.99619  -0.0306567
-6.79975e-18  -4.99058  -0.0612467
-6.77307e-32  -4.98155  -6.10064e-16
3.40357e-18  -4.99619  0.0306567
6.79975e-18  -4.99058  0.0612467
0.00475725  -4.98923  0.245105
0.000366315  -4.99813  0.122697
0.00977545  -4.98083  0.306004
0.00444361  -4.98794  0.275731
0.00381633  -4.98481  0.336962
4.30941e-16  -0.23847  3.88157
0.00256178  -4.97629  0.459309
0.0019345  -4.9709  0.520407
0.00130723  -4.96476  0.581441
0.00130723  -4.80935  1.36275
0.0019345  -4.79166  1.42149
0.00256178  -4.77326  1.48
0.00381633  -4.73431  1.59629
0.00977545  -4.71879  1.62337
0.00475725  -4.70324  1.68285
0.00444361  -4.71377  1.65406
0.000366315  -4.66462  1.79934
2.09126e-16  -4.62761  1.88364
2.0575e-16  -4.63413  1.85323
2.11648e-16  -4.60235  1.90636
2.15415e-16  -4.60415  1.94028
2.18314e-16  -4.58726  1.9664
0.00475725  -4.51565  2.13574
0.00977545  -4.48459  2.18879
0.000366315  -4.57071  2.02606
0.00444361  -4.50274  2.16354
0.00381633  -4.47641  2.21892
0.00256178  -4.42172  2.32869
0.0019345  -4.39336  2.38307
1.49947  -0.485289  -3.46673
0.00130723  -4.36433  2.43711
1.56384  -0.355449  -3.41773
1.63882  -0.0336088  -3.36101
2.22877  1.8423  -2.07017
0.00130723  -3.92176  3.09948
0.0019345  -3.88294  3.14697
0.00256178  -3.84355  3.19398
0.00381633  -3.76306  3.28652
0.00977545  -3.73836  3.3056
1.69224  -0.400429  -3.28344
0.00475725  -3.70123  3.3546
0.00444361  -3.72198  3.33204
0.000366315  -3.62097  3.44745
3.89818e-16  -3.55452  3.51117
3.86976e-16  -3.57218  3.48557
3.91075e-16  -3.52249  3.52249
3.94631e-16  -3.51117  3.55452
3.96592e-16  -3.48557  3.57218
0.00475725  -3.3546  3.70123
0.00977545  -3.3056  3.73836
0.000366315  -3.44745  3.62097
0.00444361  -3.33204  3.72198
0.00381633  -3.28652  3.76306
0.00256178  -3.19398  3.84355