VARIABLES = X Y Z
ZONE N =5107, E =10184, DATAPACKING = POINT, ZONETYPE = FETRIANGLE
0  0  0
0  0  0
0  0  0
9.06421e-32  3.33333  8.16431e-16
1.20856e-31  4.44444  1.08857e-15
1.32186e-31  4.86111  1.19063e-15
1.34311e-31  4.93924  1.20976e-15
1.35801e-31  4.99402  1.22318e-15
0.000787479  4.99921  1.22445e-15
3.51345  1.48655  3.64099e-16
4.30447  0.69553  1.70356e-16
4.89773  0.102268  2.50484e-17
4.99923  -1.35942e-31  0
4.98725  -1.35616e-31  0
2.55113  -6.9372e-32  0
0  0  0
9.06421e-32  3.33333  8.16431e-16
1.20856e-31  4.44444  1.08857e-15
1.32186e-31  4.86111  1.19063e-15
1.34311e-31  4.93924  1.20976e-15
1.35801e-31  4.99402  1.22318e-15
0.000787479  4.99921  1.22445e-15
3.51345  1.48655  3.64099e-16
4.30447  0.69553  1.70356e-16
4.89773  0.102268  2.50484e-17
4.99923  -1.35942e-31  0
4.98725  -1.35616e-31  0
2.55113  -6.9372e-32  0
-1.06981e-16  4.84433  -0.963597
1.06981e-16  4.84433  0.963597
4.99923  1.0828e-16  -1.06647e-17
4.89773  0.100303  -0.0199515
4.99923  2.12399e-16  -4.22488e-17
4.89773  0.0944831  -0.0391362
4.99923  3.08356e-16  -9.35387e-17
4.89773  0.0850326  -0.0568169
4.99923  3.92462e-16  -1.62563e-16
4.89773  0.0723143  -0.0723143
4.99923  4.61487e-16  -2.4667e-16
4.89773  0.0568169  -0.0850326
4.99923  5.12777e-16  -3.42626e-16
4.89773  0.0391362  -0.0944831
4.99923  5.44361e-16  -4.46745e-16
4.89773  0.0199515  -0.100303
4.99923  5.55026e-16  -5.55026e-16
4.89773  5.55112e-16  -0.102268
4.99923  5.44361e-16  -6.63306e-16
4.89773  -0.0199515  -0.100303
4.99923  5.12777e-16  -7.67425e-16
4.89773  -0.0391362  -0.0944831
4.99923  4.61487e-16  -8.63381e-16
4.89773  -0.0568169  -0.0850326
4.89773  -0.0723143  -0.0723143
4.99923  3.92462e-16  -9.47488e-16
4.99923  3.08356e-16  -1.01651e-15
4.89773  -0.0850326  -0.0568169
4.99923  2.12399e-16  -1.0678e-15
4.89773  -0.0944831  -0.0391362
4.99923  1.0828e-16  -1.09939e-15
4.89773  -0.100303  -0.0199515
4.99923  6.7971e-32  -1.11005e-15
4.89773  -0.102268  -1.10004e-15
4.99923  -1.0828e-16  -1.09939e-15
4.89773  -0.100303  0.0199515
4.99923  -2.12399e-16  -1.0678e-15
4.89773  -0.0944831  0.0391362
4.99923  -3.08356e-16  -1.01651e-15
4.89773  -0.0850326  0.0568169
4.89773  -0.0723143  0.0723143
4.99923  -3.92462e-16  -9.47488e-16
4.99923  -4.61487e-16  -8.63381e-16
4.89773  -0.0568169  0.0850326
4.99923  -5.12777e-16  -7.67425e-16
4.89773  -0.0391362  0.0944831
4.99923  -5.44361e-16  -6.63306e-16
4.89773  -0.0199515  0.100303
4.99923  -5.55026e-16  -5.55026e-16
4.89773  -5.66466e-16  0.102268
4.99923  -5.44361e-16  -4.46745e-16
4.89773  0.0199515  0.100303
4.99923  -5.12777e-16  -3.42626e-16
4.89773  0.0391362  0.0944831
4.99923  -4.61487e-16  -2.4667e-16
4.89773  0.0568169  0.0850326
4.99923  -3.92462e-16  -1.62563e-16
4.89773  0.0723143  0.0723143
4.89773  0.0850326  0.0568169
4.99923  -3.08356e-16  -9.35387e-17
4.99923  -2.12399e-16  -4.22488e-17
4.89773  0.0944831  0.0391362
4.89773  0.100303  0.0199515
4.99923  -1.0828e-16  -1.06647e-17
-4.23192e-17  3.87016  -0.381178
-2.4555e-16  4.13783  -2.21172
-1.88828e-16  4.10613  -1.70082
-2.74136e-16  3.69542  -2.4692
-3.30455e-16  3.62684  -2.97647
-3.04655e-16  4.10682  -2.74409
-3.48909e-16  3.1427  -3.1427
-3.87753e-16  3.49257  -3.49257
-4.0266e-16  2.97647  -3.62684
-4.10274e-16  2.4692  -3.69542
-4.55949e-16  2.74409  -4.10682
-4.59392e-16  2.21172  -4.13783
-4.55872e-16  1.70082  -4.10613
-5.06624e-16  1.89016  -4.56326
-4.98469e-16  1.36197  -4.48981
-5.37829e-16  0.963597  -4.84433
-4.83951e-16  0.867068  -4.35905
-5.18391e-16  0.459881  -4.66925
-4.93432e-16  4.93432e-16  -4.44444
-5.48365e-16  5.48365e-16  -4.93924
-5.18391e-16  -0.459881  -4.66925
-5.37829e-16  -0.963597  -4.84433
-4.83951e-16  -0.867068  -4.35905
-4.98469e-16  -1.36197  -4.48981
-4.55872e-16  -1.70082  -4.10613
-5.06624e-16  -1.89016  -4.56326
-4.59392e-16  -2.21172  -4.13783
-4.55949e-16  -2.74409  -4.10682
-4.10274e-16  -2.4692  -3.69542
-4.0266e-16  -2.97647  -3.62684
-3.87753e-16  -3.49257  -3.49257
-3.48909e-16  -3.1427  -3.1427
-3.30455e-16  -3.62684  -2.97647
-2.74136e-16  -3.69542  -2.4692
-3.04655e-16  -4.10682  -2.74409
-2.4555e-16  -4.13783  -2.21172
-2.0985e-16  -4.56326  -1.89016
-1.88828e-16  -4.10613  -1.70082
-1.51209e-16  -4.48981  -1.36197
-9.62639e-17  -4.35905  -0.867068
-1.06981e-16  -4.84433  -0.963597
-5.1057e-17  -4.66925  -0.459881
-6.71554e-32  -4.93924  -6.04882e-16
-6.0428e-32  -4.44444  -5.44287e-16
5.1057e-17  -4.66925  0.459881
1.06981e-16  -4.84433  0.963597
9.62639e-17  -4.35905  0.867068
1.51209e-16  -4.48981  1.36197
2.0985e-16  -4.56326  1.89016
1.88828e-16  -4.10613  1.70082
2.4555e-16  -4.13783  2.21172
3.04655e-16  -4.10682  2.74409
2.74136e-16  -3.69542  2.4692
3.30455e-16  -3.62684  2.97647
3.48909e-16  -3.1427  3.1427
3.87753e-16  -3.49257  3.49257
4.0266e-16  -2.97647  3.62684
4.55949e-16  -2.74409  4.10682
4.10274e-16  -2.4692  3.69542
4.59392e-16  -2.21172  4.13783
4.55872e-16  -1.70082  4.10613
5.06624e-16  -1.89016  4.56326
4.98469e-16  -1.36197  4.48981
5.37829e-16  -0.963597  4.84433
4.83951e-16  -0.867068  4.35905
5.18391e-16  -0.459881  4.66925
4.93432e-16  -9.86865e-16  4.44444
5.48365e-16  -1.09673e-15  4.93924
5.18391e-16  0.459881  4.66925
4.83951e-16  0.867068  4.35905
5.37829e-16  0.963597  4.84433
4.98469e-16  1.36197  4.48981
4.55872e-16  1.70082  4.10613
5.06624e-16  1.89016  4.56326
4.23192e-17  3.87016  0.381178
4.59392e-16  2.21172  4.13783
4.55949e-16  2.74409  4.10682
4.10274e-16  2.4692  3.69542
4.0266e-16  2.97647  3.62684
3.87753e-16  3.49257  3.49257
3.48909e-16  3.1427  3.1427
3.90896  1.08578  -0.10694
3.51345  1.45798  -0.290011
3.30455e-16  3.62684  2.97647
2.74136e-16  3.69542  2.4692
3.04655e-16  4.10682  2.74409
3.90896  1.07007  -0.212851
3.90896  1.04406  -0.316711
3.51345  1.37339  -0.568876
2.4555e-16  4.13783  2.21172
1.88828e-16  4.10613  1.70082
3.90896  1.00799  -0.417522
4.6011  0.391234  -0.0778213
4.6011  0.381722  -0.115794
4.69998  0.269081  -0.132696
4.6011  0.368534  -0.152652
4.6011  0.351797  -0.18804
4.69998  0.249459  -0.166683
4.20559  -0.790581  -0.0778655
3.51345  -1.45798  -0.290011
3.51345  -1.48655  -9.62193e-16
4.20559  -0.790581  0.0778655
3.51345  -1.45798  0.290011
3.90896  1.04406  0.316711
3.51345  1.37339  0.568876
3.51345  1.45798  0.290011
3.90896  1.00799  0.417522
3.90896  1.07007  0.212851
3.90896  1.08578  0.10694
4.69998  0.249459  0.166683
4.69998  0.269081  0.132696
4.6011  0.351797  0.18804
4.6011  0.368534  0.152652
4.6011  0.381722  0.115794
4.6011  0.391234  0.0778213
-3.92964e-17  3.59372  -0.353951
-5.88263e-17  3.57203  -0.52986
-8.42309e-17  3.81416  -0.758685
-7.82144e-17  3.54172  -0.704493
-9.74141e-17  3.50289  -0.877428
-1.25331e-16  3.72143  -1.12888
-1.16379e-16  3.45562  -1.04825
-1.35064e-16  3.40002  -1.21655
-1.65225e-16  3.59286  -1.48821
-1.53423e-16  3.33623  -1.38191
-1.71413e-16  3.26441  -1.54395
-2.03527e-16  3.42969  -1.83321
-1.88989e-16  3.18472  -1.70227
-7.44167e-17  4.5187  -0.670286
-9.62639e-17  4.35905  -0.867068
-7.78105e-17  4.72478  -0.700855
-1.51209e-16  4.48981  -1.36197
-4.35552e-16  -1.40371  -3.9231
-4.4873e-16  -1.01242  -4.0418
-4.18179e-16  -1.78148  -3.76662
-3.96779e-16  -2.14209  -3.57387
-3.71558e-16  -2.48208  -3.3467
3.96779e-16  -2.14209  3.57387
3.71558e-16  -2.48208  3.3467
4.18179e-16  -1.78148  3.76662
4.35552e-16  -1.40371  3.9231
4.4873e-16  -1.01242  4.0418
2.63529  2.33912  -0.346975
1.75712  3.22726  -0.317858
1.75374  3.18389  -0.633314
2.63529  2.36186  -0.116031
2.6336  2.29549  -0.574989
1.75374  3.10648  -0.94234
2.6336  2.22807  -0.797217
1.75374  2.99915  -1.24229
2.6336  2.1392  -1.01177
1.75374  2.86295  -1.53028
2.6336  2.02973  -1.21657
1.75374  2.69917  -1.80353
2.6336  1.90071  -1.40966
1.75374  2.50939  -2.05941
1.71413e-16  3.26441  1.54395
2.03527e-16  3.42969  1.83321
1.88989e-16  3.18472  1.70227
1.65225e-16  3.59286  1.48821
1.53423e-16  3.33623  1.38191
2.6336  1.75339  -1.58918
1.75374  2.29545  -2.29545
1.35064e-16  3.40002  1.21655
1.25331e-16  3.72143  1.12888
1.16379e-16  3.45562  1.04825
2.6336  1.58918  -1.75339
1.75374  2.05941  -2.50939
9.74141e-17  3.50289  0.877428
8.42309e-17  3.81416  0.758685
7.82144e-17  3.54172  0.704493
2.6336  1.40966  -1.90071
1.75374  1.80353  -2.69917
5.88263e-17  3.57203  0.52986
3.92964e-17  3.59372  0.353951
2.6336  1.21657  -2.02973
1.75374  1.53028  -2.86295
2.6336  1.01177  -2.1392
1.75374  1.24229  -2.99915
2.6336  0.797217  -2.22807
1.75374  0.94234  -3.10648
2.6336  0.574989  -2.29549
1.75374  0.633314  -3.18389
2.6336  0.347224  -2.34079
1.75374  0.318189  -3.23063
2.6336  0.116114  -2.36355
1.75374  1.27593e-15  -3.24626
2.6336  -0.116114  -2.36355
1.75374  -0.318189  -3.23063
2.6336  -0.347224  -2.34079
1.75374  -0.633314  -3.18389
2.6336  -0.574989  -2.29549
1.75374  -0.94234  -3.10648
2.6336  -0.797217  -2.22807
1.75374  -1.24229  -2.99915
2.6336  -1.01177  -2.1392
1.75374  -1.53028  -2.86295
3.71121  1.03517  -0.767732
3.51345  1.23602  -0.82588
3.90896  0.962209  -0.514311
2.6336  -1.21657  -2.02973
1.75374  -1.80353  -2.69917
3.71121  0.954931  -0.865499
3.51345  1.05115  -1.05115
7.44167e-17  4.5187  0.670286
9.62639e-17  4.35905  0.867068
2.6336  -1.40966  -1.90071
1.75374  -2.05941  -2.50939
2.6336  -1.58918  -1.75339
1.75374  -2.29545  -2.29545
4.07376  0.823908  -0.423204
2.6336  -1.75339  -1.58918
1.75374  -2.50939  -2.05941
4.27151  0.689828  -0.234165
4.23855  0.604097  -0.46354
7.78105e-17  4.72478  0.700855
1.51209e-16  4.48981  1.36197
2.6336  -1.90071  -1.40966
1.75374  -2.69917  -1.80353
2.6336  -2.02973  -1.21657
1.75374  -2.86295  -1.53028
4.05728  0.666605  -0.666605
4.20559  0.374481  -0.700604
2.6336  -2.1392  -1.01177
1.75374  -2.99915  -1.24229
4.41983  0.516073  -0.265083
2.6336  -2.22807  -0.797217
1.75374  -3.10648  -0.94234
2.6336  -2.29549  -0.574989
1.75374  -3.18389  -0.633314
2.6336  -2.34079  -0.347224
1.75374  -3.23063  -0.318189
2.6336  -2.36355  -0.116114
1.75374  -3.24626  -2.22859e-15
4.45279  0.367487  -0.405459
2.6336  -2.36355  0.116114
1.75374  -3.23063  0.318189
2.6336  -2.34079  0.347224
1.75374  -3.18389  0.633314
2.6336  -2.29549  0.574989
1.75374  -3.10648  0.94234
2.6336  -2.22807  0.797217
1.75374  -2.99915  1.24229
2.6336  -2.1392  1.01177
1.75374  -2.86295  1.53028
2.6336  -2.02973  1.21657
1.75374  -2.69917  1.80353
2.6336  -1.90071  1.40966
1.75374  -2.50939  2.05941
2.6336  -1.75339  1.58918
1.75374  -2.29545  2.29545
2.6336  -1.58918  1.75339
1.75374  -2.05941  2.50939
2.6336  -1.40966  1.90071
1.75374  -1.80353  2.69917
2.6336  -1.21657  2.02973
1.75374  -1.53028  2.86295
2.6336  -1.01177  2.1392
1.75374  -1.24229  2.99915
2.6336  -0.797217  2.22807
1.75374  -0.94234  3.10648
2.6336  -0.574989  2.29549
1.75374  -0.633314  3.18389
2.6336  -0.347224  2.34079
1.75374  -0.318189  3.23063
2.6336  -0.116114  2.36355
1.75374  -9.15519e-16  3.24626
2.6336  0.116114  2.36355
1.75374  0.318189  3.23063
2.6336  0.347224  2.34079
1.75374  0.633314  3.18389
2.6336  0.574989  2.29549
1.75374  0.94234  3.10648
2.6336  0.797217  2.22807
1.75374  1.24229  2.99915
2.6336  1.01177  2.1392
1.75374  1.53028  2.86295
2.6336  1.21657  2.02973
1.75374  1.80353  2.69917
2.6336  1.40966  1.90071
1.75374  2.05941  2.50939
2.6336  1.58918  1.75339
1.75374  2.29545  2.29545
2.6336  1.75339  1.58918
1.75374  2.50939  2.05941
2.6336  1.90071  1.40966
1.75374  2.69917  1.80353
2.6336  2.02973  1.21657
1.75374  2.86295  1.53028
2.6336  2.1392  1.01177
1.75374  2.99915  1.24229
2.6336  2.22807  0.797217
1.75374  3.10648  0.94234
2.6336  2.29549  0.574989
1.75374  3.18389  0.633314
2.63529  2.33912  0.346975
1.75712  3.22726  0.317858
2.63529  2.36186  0.116031
3.71121  1.03517  0.767732
3.71121  0.954931  0.865499
3.51345  1.05115  1.05115
3.90896  0.962209  0.514311
3.51345  1.23602  0.82588
4.05728  0.666605  0.666605
4.23855  0.604097  0.46354
4.20559  0.374481  0.700604
4.07376  0.823908  0.423204
4.45279  0.367487  0.405459
4.27151  0.689828  0.234165
4.41983  0.516073  0.265083
-4.71886e-17  3.44611  -0.425037
-5.65637e-17  3.43464  -0.509481
-6.59048e-17  3.4211  -0.593618
-7.52062e-17  3.4055  -0.677397
-8.44622e-17  3.38785  -0.760768
-9.36674e-17  3.36816  -0.843681
-1.02816e-16  3.34644  -0.926086
-2.56142e-16  2.9563  -2.30712
-2.73901e-16  3.00615  -2.46708
-2.39869e-16  3.23349  -2.16055
-2.06111e-16  3.09735  -1.85648
-2.71938e-16  2.83953  -2.4494
-2.87079e-16  2.71593  -2.58578
-3.05296e-16  2.74986  -2.74986
-3.01528e-16  2.58578  -2.71593
-3.3375e-16  2.46708  -3.00615
-1.33436e-16  4.34306  -1.20189
-1.3623e-17  4.99844  -0.122705
-2.72331e-17  4.99307  -0.245294
-1.43846e-16  4.68189  -1.29565
-4.4381e-16  0.493043  -3.99749
-4.23457e-16  0.758685  -3.81416
-4.29674e-16  0.381178  -3.87016
-4.45962e-16  0.296302  -4.01686
-4.45962e-16  -0.296302  -4.01686
-4.62036e-16  -0.204449  -4.16165
-4.47038e-16  -0.0988466  -4.02656
-4.4381e-16  -0.493043  -3.99749
-4.57586e-16  -0.611377  -4.12157
-4.4059e-16  -0.688596  -3.96848
-4.76717e-16  0.316736  -4.29389
-4.70975e-16  0.736086  -4.24217
0.438179  4.54946  -0.335588
0.877263  4.10289  -0.404099
0.878954  4.11608  -0.20221
0.437334  4.5407  -0.44722
0.875571  4.07979  -0.605179
0.436488  4.52919  -0.558623
0.435642  4.51496  -0.66973
0.87388  4.04684  -0.804966
0.43395  4.47831  -0.890792
0.43395  4.4551  -1.00043
0.87388  4.00247  -1.00257
0.43395  4.33559  -1.43229
0.87388  3.88492  -1.39005
0.43395  4.26009  -1.6433
0.87388  3.81204  -1.579
0.43395  4.21848  -1.74735
0.43395  4.17433  -1.85035
0.87388  3.72997  -1.76414
0.43395  4.07851  -2.05295
0.87388  3.53909  -2.12125
0.43395  3.85764  -2.44283
0.87388  3.43074  -2.29235
0.43395  3.79653  -2.53676
0.43395  3.73313  -2.62917
0.87388  3.31413  -2.45793
0.43395  3.45745  -2.98242
0.87388  3.05725  -2.77093
0.43395  3.30695  -3.14848
0.87388  2.91761  -2.91761
0.43395  3.22868  -3.22868
0.43395  3.14848  -3.30695
0.87388  2.77093  -3.05725
0.43395  2.98242  -3.45745
0.87388  2.45793  -3.31413
-3.29609e-16  -3.11829  -2.96886
0.43395  2.62917  -3.73313
0.87388  2.29235  -3.43074
0.43395  2.53676  -3.79653
0.43395  2.44283  -3.85764
0.87388  2.12125  -3.53909
-2.94089e-16  -3.39427  -2.64891
0.43395  2.05295  -4.07851
0.87388  1.76414  -3.72997
-2.55736e-16  -3.63756  -2.30346
0.43395  1.85035  -4.17433
0.87388  1.579  -3.81204
1.31804  3.68085  -0.0903599
0.43395  1.74735  -4.21848
0.43395  1.6433  -4.26009
0.87388  1.39005  -3.88492
0.43395  1.43229  -4.33559
0.87388  1.00257  -4.00247
0.43395  1.00043  -4.4551
0.87388  0.804966  -4.04684
0.43395  0.890792  -4.47831
0.43395  0.78062  -4.49883
0.87388  0.605428  -4.08146
0.43395  0.558933  -4.53171
0.87388  0.202459  -4.12115
0.43395  0.112056  -4.56467
0.87388  1.47129e-15  -4.12612
0.43395  1.56898e-15  -4.56605
0.43395  -0.112056  -4.56467
0.87388  -0.202459  -4.12115
0.43395  -0.335899  -4.55368
0.87388  -0.605428  -4.08146
0.43395  -0.78062  -4.49883
0.87388  -0.804966  -4.04684
0.43395  -0.890792  -4.47831
0.43395  -1.00043  -4.4551
0.87388  -1.00257  -4.00247
0.43395  -1.21782  -4.40065
0.87388  -1.39005  -3.88492
0.43395  -1.6433  -4.26009
0.87388  -1.579  -3.81204
0.43395  -1.74735  -4.21848
0.43395  -1.85035  -4.17433
0.87388  -1.76414  -3.72997
0.43395  -2.05295  -4.07851
0.87388  -2.12125  -3.53909
0.43395  -2.44283  -3.85764
0.87388  -2.29235  -3.43074
0.43395  -2.53676  -3.79653
0.43395  -2.62917  -3.73313
0.87388  -2.45793  -3.31413
0.43395  -2.98242  -3.45745
0.87388  -2.77093  -3.05725
0.43395  -3.14848  -3.30695
0.87388  -2.91761  -2.91761
2.94089e-16  -3.39427  2.64891
2.55736e-16  -3.63756  2.30346
0.43395  -3.22868  -3.22868
0.43395  -3.30695  -3.14848
0.87388  -3.05725  -2.77093
0.43395  -3.45745  -2.98242
0.87388  -3.31413  -2.45793
3.29609e-16  -3.11829  2.96886
0.43395  -3.73313  -2.62917
0.87388  -3.43074  -2.29235
0.43395  -3.79653  -2.53676
0.43395  -3.85764  -2.44283
0.87388  -3.53909  -2.12125
0.43395  -3.97286  -2.2506
0.87388  -3.72997  -1.76414
0.43395  -4.17433  -1.85035
0.87388  -3.81204  -1.579
4.4059e-16  -0.688596  3.96848
4.57586e-16  -0.611377  4.12157
0.43395  -4.21848  -1.74735
0.43395  -4.26009  -1.6433
0.87388  -3.88492  -1.39005
4.4381e-16  -0.493043  3.99749
0.43395  -4.33559  -1.43229
0.87388  -4.00247  -1.00257
4.45962e-16  -0.296302  4.01686
4.62036e-16  -0.204449  4.16165
4.47038e-16  -0.0988466  4.02656
0.43395  -4.4551  -1.00043
0.87388  -4.04684  -0.804966
0.43395  -4.47831  -0.890792
0.43395  -4.49883  -0.78062
0.87388  -4.08146  -0.605428
0.43395  -4.53171  -0.558933
0.87388  -4.12115  -0.202459
4.4381e-16  0.493043  3.99749
4.29674e-16  0.381178  3.87016
4.23457e-16  0.758685  3.81416
4.45962e-16  0.296302  4.01686
0.43395  -4.56467  -0.112056
0.87388  -4.12612  -2.53171e-15
0.43395  -4.56605  -2.68327e-15
0.43395  -4.56467  0.112056
0.87388  -4.12115  0.202459
0.43395  -4.53171  0.558933
0.87388  -4.08146  0.605428
3.01528e-16  2.58578  2.71593
3.05296e-16  2.74986  2.74986
3.3375e-16  2.46708  3.00615
0.43395  -4.49883  0.78062
0.87388  -4.04684  0.804966
4.76717e-16  0.316736  4.29389
0.43395  -4.47831  0.890792
2.87079e-16  2.71593  2.58578
2.73901e-16  3.00615  2.46708
0.43395  -4.4551  1.00043
0.87388  -4.00247  1.00257
2.71938e-16  2.83953  2.4494
0.43395  -4.40065  1.21782
0.87388  -3.88492  1.39005
4.70975e-16  0.736086  4.24217
2.56142e-16  2.9563  2.30712
2.39869e-16  3.23349  2.16055
2.06111e-16  3.09735  1.85648
1.02816e-16  3.34644  0.926086
3.07437  1.92041  -0.141658
9.36674e-17  3.36816  0.843681
0.43395  -4.26009  1.6433
0.87388  -3.81204  1.579
8.44622e-17  3.38785  0.760768
0.43395  -4.21848  1.74735
7.52062e-17  3.4055  0.677397
0.43395  -4.17433  1.85035
0.87388  -3.72997  1.76414
6.59048e-17  3.4211  0.593618
5.65637e-17  3.43464  0.509481
0.43395  -4.07851  2.05295
0.87388  -3.53909  2.12125
4.71886e-17  3.44611  0.425037
3.07353  1.85669  -0.513815
0.43395  -3.85764  2.44283
0.87388  -3.43074  2.29235
0.43395  -3.79653  2.53676
0.43395  -3.73313  2.62917
0.87388  -3.31413  2.45793
0.43395  -3.59963  2.80918
0.87388  -3.05725  2.77093
3.07353  1.72077  -0.866165
0.43395  -3.30695  3.14848
0.87388  -2.91761  2.91761
0.43395  -3.22868  3.22868
0.43395  -3.14848  3.30695
0.87388  -2.77093  3.05725
0.43395  -2.80918  3.59963
0.87388  -2.45793  3.31413
3.07353  1.51873  -1.18523
0.43395  -2.62917  3.73313
0.87388  -2.29235  3.43074
0.43395  -2.53676  3.79653
0.43395  -2.44283  3.85764
0.87388  -2.12125  3.53909
0.43395  -2.2506  3.97286
0.87388  -1.76414  3.72997
3.07353  1.25832  -1.45874
3.51345  0.82588  -1.23602
0.43395  -1.85035  4.17433
0.87388  -1.579  3.81204
0.43395  -1.74735  4.21848
0.43395  -1.6433  4.26009
0.87388  -1.39005  3.88492
0.43395  -1.21782  4.40065
0.87388  -1.00257  4.00247
3.07353  0.949556  -1.6762
3.51345  0.568876  -1.37339
0.43395  -1.00043  4.4551
0.87388  -0.804966  4.04684
0.43395  -0.890792  4.47831
0.43395  -0.78062  4.49883
0.87388  -0.605428  4.08146
0.43395  -0.558933  4.53171
0.87388  -0.202459  4.12115
0.43395  -0.112056  4.56467
0.87388  -1.0132e-15  4.12612
3.07353  0.513815  -1.85669
3.51345  0.290011  -1.45798
0.43395  -1.06204e-15  4.56605
0.43395  0.112056  4.56467
0.87388  0.202459  4.12115
0.43395  0.335899  4.55368
0.87388  0.605428  4.08146
1.33436e-16  4.34306  1.20189
3.07353  0.235821  -1.91199
3.51345  5.55112e-16  -1.48655
0.43395  0.78062  4.49883
0.87388  0.804966  4.04684
0.43395  0.890792  4.47831
0.43395  1.00043  4.4551
0.87388  1.00257  4.00247
0.43395  1.43229  4.33559
0.87388  1.39005  3.88492
3.07353  -0.14172  -1.92125
3.51345  -0.290011  -1.45798
3.61233  0.799031  -1.13454
0.43395  1.6433  4.26009
0.87388  1.579  3.81204
0.43395  1.74735  4.21848
0.43395  1.85035  4.17433
0.87388  1.76414  3.72997
0.43395  2.05295  4.07851
0.87388  2.12125  3.53909
3.07353  -0.513815  -1.85669
3.51345  -0.568876  -1.37339
1.43846e-16  4.68189  1.29565
0.43395  2.44283  3.85764
0.87388  2.29235  3.43074
0.43395  2.53676  3.79653
3.78537  0.674814  -1.00993
0.43395  2.62917  3.73313
0.87388  2.45793  3.31413
0.43395  2.98242  3.45745
0.87388  2.77093  3.05725
3.07353  -0.866165  -1.72077
3.51345  -0.82588  -1.23602
0.43395  3.14848  3.30695
0.87388  2.91761  2.91761
0.43395  3.22868  3.22868
0.43395  3.30695  3.14848
0.87388  3.05725  2.77093
0.43395  3.59963  2.80918
0.87388  3.31413  2.45793
0.43395  3.73313  2.62917
0.87388  3.43074  2.29235
3.07353  -1.25832  -1.45874
3.51345  -1.05115  -1.05115
0.43395  3.79653  2.53676
1.3623e-17  4.99844  0.122705
2.72331e-17  4.99307  0.245294
0.43395  3.85764  2.44283
0.87388  3.53909  2.12125
0.43395  3.97286  2.2506
0.87388  3.72997  1.76414
3.07353  -1.45874  -1.25832
3.51345  -1.23602  -0.82588
0.43395  4.17433  1.85035
0.87388  3.81204  1.579
0.43395  4.21848  1.74735
0.43395  4.26009  1.6433
0.87388  3.88492  1.39005
0.43395  4.33559  1.43229
0.87388  4.00247  1.00257
3.07353  -1.6762  -0.949556
3.51345  -1.37339  -0.568876
0.43395  4.4551  1.00043
0.87388  4.04684  0.804966
4.32919  0.330641  -0.583663
4.20559  0.230604  -0.7602
0.43395  4.47831  0.890792
0.435642  4.51496  0.66973
0.875571  4.07979  0.605179
0.436488  4.52919  0.558623
0.437334  4.5407  0.44722
0.877263  4.10289  0.404099
0.438179  4.54946  0.335588
0.878954  4.11608  0.20221
3.07353  -1.82924  -0.6043
3.07353  -1.91199  -0.235821
4.67526  0.173736  -0.274359
3.07353  -1.92125  0.14172
3.07353  -1.82924  0.6043
3.51345  -1.37339  0.568876
3.07353  -1.72077  0.866165
3.51345  -1.23602  0.82588
3.07353  -1.51873  1.18523
3.51345  -1.05115  1.05115
1.31804  3.68085  0.0903599
3.07353  -1.25832  1.45874
3.51345  -0.82588  1.23602
3.07353  -0.949556  1.6762
3.51345  -0.568876  1.37339
3.07353  -0.6043  1.82924
3.51345  -0.290011  1.45798
3.07353  -0.235821  1.91199
3.51345  -7.20151e-16  1.48655
3.07353  0.14172  1.92125
3.51345  0.290011  1.45798
3.07353  0.513815  1.85669
3.51345  0.568876  1.37339
3.07353  0.866165  1.72077
3.51345  0.82588  1.23602
3.07353  1.25832  1.45874
3.07353  1.45874  1.25832
3.07353  1.6762  0.949556
3.07353  1.82924  0.6043
3.61233  0.799031  1.13454
3.07437  1.91115  0.235717
3.78537  0.674814  1.00993
4.32919  0.330641  0.583663
4.20559  0.230604  0.7602
4.67526  0.173736  0.274359
-6.01649e-18  0.27244  -0.0541918
-2.36036e-17  0.513266  -0.212602
-2.2198e-17  0.518329  -0.199942
-1.71335e-17  0.230964  -0.154325
-4.36137e-17  0.392837  -0.392837
-4.94972e-17  0.704045  -0.445831
-4.85343e-17  0.709463  -0.437158
-5.14006e-17  0.692891  -0.462975
-8.72274e-17  0.785674  -0.785674
-8.28422e-17  0.823279  -0.746177
-7.69264e-17  0.462975  -0.692891
-5.6984e-17  0.212602  -0.513266
-9.07409e-17  0.162575  -0.817321
-1.13968e-16  0.425204  -1.02653
-1.23358e-16  3.70074e-16  -1.11111
-1.24971e-16  0.813608  -1.12563
-1.22716e-16  0.840988  -1.10533
-1.2607e-16  0.799734  -1.13553
-1.28211e-16  0.771625  -1.15482
-1.6528e-16  0.749352  -1.48871
-1.70952e-16  0.637806  -1.5398
-1.67272e-16  0.712592  -1.50665
-9.07409e-17  -0.162575  -0.817321
-1.51235e-16  0.270959  -1.3622
-1.13968e-16  -0.425204  -1.02653
-1.51235e-16  -0.270959  -1.3622
-1.85037e-16  9.25186e-16  -1.66667
-2.07335e-16  0.541566  -1.8675
-1.28211e-16  -0.771625  -1.15482
-8.72274e-17  -0.785674  -0.785674
-1.70952e-16  -0.637806  -1.5398
-6.49159e-17  3.14048  -0.584711
-5.64486e-17  2.73085  -0.508444
-1.22089e-16  2.85081  -1.09968
-1.6987e-16  2.48312  -1.53005
-2.11267e-16  2.5658  -1.90293
-2.33161e-16  1.59788  -2.10013
-2.73576e-16  1.56041  -2.46416
-2.07106e-16  2.0582  -1.86544
-2.51763e-16  0.657616  -2.26768
-2.87346e-16  0.514822  -2.58818
-2.4792e-16  1.12403  -2.23306
-8.56676e-17  -1.15482  -0.771625
-1.30841e-16  -1.17851  -1.17851
-5.08425e-17  3.37182  -0.457948
-2.48542e-16  2.07961  -2.23867
-2.86347e-16  1.03144  -2.57918
-3.24627e-16  0.886981  -2.92398
-1.54919e-16  3.25519  -1.39539
-2.53067e-16  2.33607  -2.27942
-2.99577e-16  -0.232368  -2.69835
-2.72223e-16  -0.487726  -2.45196
-2.90368e-16  -0.935805  -2.6154
-2.73469e-16  -0.427405  -2.46319
-3.14805e-16  1.47117  -2.83552
-2.55332e-16  2.87355  -2.29983
-3.2031e-16  -0.427964  -2.8851
-3.49238e-16  0.870521  -3.14566
-3.29068e-16  0.742439  -2.96398
-3.26395e-16  1.71343  -2.93991
-3.5615e-16  1.32876  -3.20792
-3.5356e-16  0.715122  -3.18458
-3.32717e-16  0.596109  -2.99684
-3.35563e-16  0.448343  -3.02248
-3.38826e-16  0.149929  -3.05188
-3.36056e-16  1.96923  -3.02692
-3.69824e-16  0.122691  -3.33107
-3.43788e-16  -0.420565  -3.09657
-3.43669e-16  2.23742  -3.0955
-3.80773e-16  1.83321  -3.42969
-3.5899e-16  2.16055  -3.23349
-3.96378e-16  0.894302  -3.57025
-4.13162e-16  1.12888  -3.72143
-3.98888e-16  1.48821  -3.59286
-3.17457e-16  -1.57379  -2.8594
-3.36755e-16  -1.00204  -3.03322
-2.90971e-16  -1.57087  -2.62084
-2.82063e-16  -1.69758  -2.5406
-2.86071e-16  -2.11464  -2.5767
-4.24951e-16  1.00884  -3.82762
6.01649e-18  0.27244  0.0541918
2.2198e-17  0.518329  0.199942
2.36036e-17  0.513266  0.212602
5.64486e-18  0.273085  0.0508444
-3.39975e-16  -1.63679  -3.06223
-1.96841e-16  4.43348  -1.77298
-2.0985e-16  4.56326  -1.89016
-4.36884e-16  1.14116  -3.9351
-4.30141e-16  1.33287  -3.87436
-4.39165e-16  -0.145695  -3.95565
-4.14329e-16  -0.367564  -3.73194
-3.71508e-16  -1.53269  -3.34624
-3.83651e-16  -1.04825  -3.45562
5.14006e-17  0.692891  0.462975
8.28422e-17  0.823279  0.746177
8.72274e-17  0.785674  0.785674
0.219061  4.77518  -0.23459
4.94972e-17  0.704045  0.445831
0.218638  4.77236  -0.293197
4.85343e-17  0.709463  0.437158
0.218215  4.76883  -0.35177
0.217369  4.7596  -0.46878
-4.50996e-16  1.62451  -4.06221
0.216946  4.75391  -0.527199
0.216523  4.7475  -0.585549
0.215677  4.73254  -0.702006
0.213986  4.69405  -0.933705
0.213986  4.68224  -0.991238
-4.02823e-16  -1.39959  -3.62831
-3.51741e-16  -2.00624  -3.1682
0.213986  4.62796  -1.21979
0.213986  4.48612  -1.66754
1.28211e-16  0.771625  1.15482
1.67272e-16  0.712592  1.50665
1.70952e-16  0.637806  1.5398
1.6528e-16  0.749352  1.48871
1.51235e-16  0.270959  1.3622
0.213986  4.44384  -1.77713
1.2607e-16  0.799734  1.13553
0.213986  4.4217  -1.83153
1.24971e-16  0.813608  1.12563
0.213986  4.39889  -1.88565
1.22716e-16  0.840988  1.10533
0.213986  4.35129  -1.99304
-4.33643e-16  -1.23739  -3.90591
0.213986  4.13499  -2.40994
-4.84808e-16  -0.268278  -4.36677
0.213986  4.01176  -2.60993
0.213986  3.97943  -2.65897
0.213986  3.9465  -2.7076
0.213986  3.80889  -2.89798
-2.64968e-16  -2.98198  -2.38662
-3.15252e-16  -2.4494  -2.83953
-2.38824e-16  -2.90047  -2.15114
-2.22736e-16  -3.00253  -2.00623
-2.03527e-16  -3.42969  -1.83321
0.213986  3.50649  -3.25737
0.213986  3.4255  -3.34244
2.07335e-16  0.541566  1.8675
0.213986  3.38422  -3.38422
0.213986  3.34244  -3.4255
0.213986  3.25737  -3.50649
-2.92081e-16  -3.04987  -2.63084
0.213986  2.89798  -3.80889
0.213986  2.7076  -3.9465
0.213986  2.65897  -3.97943
0.213986  2.60993  -4.01176
0.213986  2.40994  -4.13499
-3.3661e-16  -2.9584  -3.03192
0.213986  1.99304  -4.35129
0.213986  1.88565  -4.39889
0.213986  1.83153  -4.4217
0.213986  1.77713  -4.44384
0.213986  1.66754  -4.48612
1.09596  3.86852  -0.525409
2.51763e-16  0.657616  2.26768
2.4792e-16  1.12403  2.23306
2.87346e-16  0.514822  2.58818
0.213986  1.21979  -4.62796
1.02193  3.81609  -1.12359
1.09596  3.83808  -0.714595
1.09596  3.81939  -0.808571
0.213986  0.991238  -4.68224
1.09596  3.7984  -0.90206
0.213986  0.933705  -4.69405
1.02193  3.75636  -1.30948
0.213986  0.876031  -4.70516
2.99577e-16  -0.232368  2.69835
2.90368e-16  -0.935805  2.6154
2.72223e-16  -0.487726  2.45196
2.73469e-16  -0.427405  2.46319
0.213986  0.760297  -4.72524
1.09596  3.74956  -1.08735
1.02193  3.68759  -1.49222
1.09596  3.72175  -1.17904
0.213986  0.293482  -4.77701
0.213986  0.0587318  -4.78565
0.213986  1.61782e-15  -4.78601
0.213986  -0.0587318  -4.78565
3.2031e-16  -0.427964  2.8851
0.213986  -0.17616  -4.78277
-1.80357e-16  -4.06221  -1.62451
-1.34284e-16  -3.98725  -1.20952
-9.02474e-17  -4.08661  -0.812876
3.17457e-16  -1.57379  2.8594
2.82063e-16  -1.69758  2.5406
2.90971e-16  -1.57087  2.62084
3.36755e-16  -1.00204  3.03322
2.86071e-16  -2.11464  2.5767
0.213986  -0.644105  -4.74247
0.213986  -0.876031  -4.70516
0.213986  -0.933705  -4.69405
0.213986  -0.991238  -4.68224
0.213986  -1.10585  -4.6565
1.53589  3.42012  -0.550302
0.213986  -1.55694  -4.52569
2.86347e-16  1.03144  2.57918
2.73576e-16  1.56041  2.46416
3.24627e-16  0.886981  2.92398
0.213986  -1.77713  -4.44384
0.213986  -1.83153  -4.4217
3.39975e-16  -1.63679  3.06223
0.213986  -1.88565  -4.39889
0.213986  -1.99304  -4.35129
2.64968e-16  -2.98198  2.38662
2.38824e-16  -2.90047  2.15114
3.15252e-16  -2.4494  2.83953
2.22736e-16  -3.00253  2.00623
2.03527e-16  -3.42969  1.83321
1.6085  3.29649  -0.797124
1.53589  3.389  -0.717457
1.53589  3.34971  -0.882883
2.33161e-16  1.59788  2.10013
2.07106e-16  2.0582  1.86544
0.213986  -2.40994  -4.13499
1.6085  3.2373  -1.01102
1.53589  3.30236  -1.04618
0.213986  -2.60993  -4.01176
0.213986  -2.65897  -3.97943
1.6085  3.16424  -1.22058
0.213986  -2.7076  -3.9465
0.213986  -2.89798  -3.80889
3.71508e-16  -1.53269  3.34624
3.83651e-16  -1.04825  3.45562
0.213986  -3.25737  -3.50649
3.69824e-16  0.122691  3.33107
3.43788e-16  -0.420565  3.09657
3.38826e-16  0.149929  3.05188
2.92081e-16  -3.04987  2.63084
0.213986  -3.34244  -3.4255
0.213986  -3.38422  -3.38422
0.213986  -3.4255  -3.34244
0.213986  -3.50649  -3.25737
3.5356e-16  0.715122  3.18458
3.32717e-16  0.596109  2.99684
3.29068e-16  0.742439  2.96398
3.35563e-16  0.448343  3.02248
1.80357e-16  -4.06221  1.62451
9.02474e-17  -4.08661  0.812876
1.34284e-16  -3.98725  1.20952
3.49238e-16  0.870521  3.14566
0.213986  -3.80889  -2.89798
0.213986  -3.9465  -2.7076
0.213986  -3.97943  -2.65897
0.213986  -4.01176  -2.60993
3.14805e-16  1.47117  2.83552
0.213986  -4.0746  -2.51069
4.02823e-16  -1.39959  3.62831
3.51741e-16  -2.00624  3.1682
2.48542e-16  2.07961  2.23867
3.3661e-16  -2.9584  3.03192
0.213986  -4.30107  -2.09922
0.213986  -4.39889  -1.88565
0.213986  -4.4217  -1.83153
0.213986  -4.44384  -1.77713
1.6987e-16  2.48312  1.53005