VARIABLES = X Y Z
ZONE N =696, E =1327, DATAPACKING = POINT, ZONETYPE = FETRIANGLE
1  2  -2
1.65838  2  -1.94545
2.2988  2  -1.78327
2.90379  2  -1.5179
3.45685  2  -1.15656
3.9429  2  -0.709126
4.34867  2  -0.187793
4.66309  2  0.393218
4.8776  2  1.01806
4.98634  2  1.66968
4.98634  2  2.33032
4.8776  2  2.98194
4.66309  2  3.60678
4.34867  2  4.18779
3.9429  2  4.70913
3.45685  2  5.15656
2.90379  2  5.5179
2.2988  2  5.78327
1.65838  2  5.94545
1  2  6
1  2  6
1  2  -2
1.65838  2  -1.94545
2.2988  2  -1.78327
2.90379  2  -1.5179
3.45685  2  -1.15656
3.9429  2  -0.709126
4.34867  2  -0.187793
4.66309  2  0.393218
4.8776  2  1.01806
4.98634  2  1.66968
4.98634  2  2.33032
4.8776  2  2.98194
4.66309  2  3.60678
4.34867  2  4.18779
3.9429  2  4.70913
3.45685  2  5.15656
2.90379  2  5.5179
2.2988  2  5.78327
1.65838  2  5.94545
1  6  2
1  5.94583  2.65608
1  5.78478  3.29439
1  5.52122  3.89764
1  5.16228  4.44949
1  4.71769  4.93499
1  4.19948  5.341
1  3.6217  5.65651
1  3  5.87298
2  5.87298  2
1.67063  5.94338  2
1.33651  5.98582  2
2  5.8212  2.6312
2  5.66724  3.24552
2  5.41523  3.82653
2  5.07189  4.35871
2  4.64641  4.82781
2  4.40634  5.03472
2  4.15016  5.2213
2  3.87959  5.38632
2  3.59643  5.52866
2  3.30257  5.64737
2  3  5.74166
1.33673  3  5.85832
1.6709  3  5.81443
1.65601  2.05583  -1.94545
1.63713  2.1659  -1.94545
1.59993  2.27119  -1.94545
1.54547  2.36868  -1.94545
2.28012  2.2195  -1.78327
1.47532  2.45556  -1.94545
2.22461  2.43268  -1.78327
1.39149  2.52933  -1.94545
2.13387  2.63342  -1.78327
2.89693  2.16145  -1.5179
1.2964  2.58788  -1.94545
2.01051  2.81593  -1.78327
2.84236  2.47971  -1.5179
1.19279  2.62952  -1.94545
1.85808  2.97497  -1.78327
2.73479  2.78417  -1.5179
1.08363  2.65305  -1.94545
1.68097  3.10596  -1.78327
2.57731  3.06607  -1.5179
0.972058  2.65779  -1.94545
3.42151  2.41521  -1.15656
1.48427  3.20514  -1.78327
2.37445  3.31731  -1.5179
0.861293  2.6436  -1.94545
3.31651  2.81847  -1.15656
1.27363  3.26965  -1.78327
2.13206  3.53064  -1.5179
0.754519  2.6109  -1.94545
3.14487  3.19819  -1.15656
1.05512  3.29763  -1.78327
3.93229  2.24957  -0.709126
1.85709  3.69994  -1.5179
0.654807  2.56063  -1.94545
2.91152  3.54344  -1.15656
0.83503  3.28828  -1.78327
3.84794  2.74155  -0.709126
1.55747  3.82034  -1.5179
0.565026  2.49423  -1.94545
2.62318  3.84429  -1.15656
0.619682  3.24187  -1.78327
3.68165  3.21218  -0.709126
1.24182  3.88837  -1.5179
0.487758  2.41361  -1.94545
2.28814  4.09208  -1.15656
0.415276  3.15973  -1.78327
3.43822  3.64795  -0.709126
0.919201  3.90207  -1.5179
0.425226  2.32109  -1.94545
4.3005  2.56593  -0.187793
1.91605  4.27968  -1.15656
0.227692  3.04423  -1.78327
3.12464  4.0363  -0.709126
0.598911  3.86106  -1.5179
0.37923  2.21933  -1.94545
4.15738  3.11557  -0.187793
1.51761  4.40171  -1.15656
0.062325  2.89869  -1.78327
2.74994  4.36608  -0.709126
0.29016  3.76651  -1.5179
0.351092  2.11127  -1.94545
3.92343  3.63313  -0.187793
1.10427  4.45464  -1.15656
-0.0760666  2.72729  -1.78327
4.6499  2.31065  0.393218
2.3249  4.62779  -0.709126
0.00182926  3.62113  -1.5179
0.341622  2  -1.94545
3.60538  4.1037  -0.187793
0.687936  4.43695  -1.15656
-0.183502  2.53498  -1.78327
4.5449  2.92302  0.393218
1.86175  4.8139  -0.709126
-0.257786  3.42912  -1.5179
0.351092  1.88873  -1.94545
3.21238  4.51375  -0.187793
0.280578  4.34916  -1.15656
-0.256889  2.32727  -1.78327
4.33791  3.50883  0.393218
1.3738  4.91906  -0.709126
-0.481216  3.196  -1.5179
0.37923  1.78067  -1.94545
2.75573  4.85149  -0.187793
-0.106083  4.19379  -1.15656
-0.294119  2.11015  -1.78327
4.03491  4.05124  0.393218
0.8751  4.94024  -0.709126
-0.662035  2.92847  -1.5179
0.425226  1.67891  -1.94545
4.82183  2.65532  1.01806
2.24857  5.10719  -0.187793
-0.460925  3.9753  -1.15656
-0.294119  1.88985  -1.78327
3.64459  4.53464  0.393218
0.379993  4.87684  -0.709126
-0.79504  2.63423  -1.5179
0.487758  1.58639  -1.94545
4.6561  3.29178  1.01806
1.70549  5.27351  -0.187793
-0.773738  3.69999  -1.15656
-0.256889  1.67273  -1.78327
3.1782  4.94512  0.393218
-0.0972777  4.73068  -0.709126
-0.876405  2.32174  -1.5179
0.565026  1.50577  -1.94545
4.3852  3.89109  1.01806
1.14212  5.34565  -0.187793
-1.03552  3.37577  -1.15656
-0.183502  1.46502  -1.78327
4.97198  2.33807  1.66968
2.64914  5.27087  0.393218
-0.542982  4.50596  -0.709126
-0.90379  2  -1.5179
0.654807  1.43937  -1.94545
4.01691  4.43599  1.01806
0.57466  5.32154  -0.187793
-1.23875  3.01198  -1.15656
-0.0760666  1.27271  -1.78327
4.85771  3.00447  1.66968
2.07264  5.50253  0.393218
-0.944297  4.20915  -0.709126
-0.876405  1.67826  -1.5179
0.754519  1.3891  -1.94545
3.56183  4.91081  1.01806
0.0194344  5.20188  -0.187793
-1.37758  2.61907  -1.15656
0.062325  1.10131  -1.78327
4.63246  3.64198  1.66968
1.46528  5.63342  0.393218
-1.28968  3.84879  -0.709126
-0.79504  1.36577  -1.5179
0.861293  1.3564  -1.94545
3.03305  5.30189  1.01806
-0.507582  4.99011  -0.187793
-1.448  2.20836  -1.15656
0.227692  0.95577  -1.78327
4.30272  4.23225  1.66968
0.844534  5.65979  0.393218
-1.56919  3.43524  -0.709126
-0.662035  1.07153  -1.5179
4.929  2.67369  2.33032
0.972058  1.34221  -1.94545
2.44579  5.59798  1.01806
-0.991228  4.69232  -0.187793
-1.448  1.79164  -1.15656
0.415276  0.84027  -1.78327
3.87796  4.7583  1.66968
0.228262  5.58088  0.393218
-1.77479  2.9804  -0.709126
-0.481216  0.804001  -1.5179
4.75863  3.32801  2.33032
1.08363  1.34695  -1.94545
1.81693  5.79057  1.01806
-1.41759  4.31707  -0.187793
-1.37758  1.38093  -1.15656
0.619682  0.758133  -1.78327
3.37041  5.205  1.66968
-0.365808  5.39894  0.393218
-1.90056  2.49735  -0.709126
-0.257786  0.570878  -1.5179
4.48013  3.94412  2.33032
1.19279  1.37048  -1.94545
1.16457  5.87411  1.01806
-1.7744  3.87517  -0.187793
-1.23875  0.98802  -1.15656
4.86363  2.32884  2.98194
0.83503  0.711722  -1.78327
2.79466  5.5595  1.66968
-0.920587  5.11923  0.393218
-1.9429  2  -0.709126
0.00182926  0.378868  -1.5179
4.10151  4.5043  2.33032
1.2964  1.41212  -1.94545
0.507476  5.84619  1.01806
-2.0514  3.37932  -0.187793
-1.03552  0.624225  -1.15656
4.75248  2.97707  2.98194
1.05512  0.702372  -1.78327
2.16729  5.8116  1.66968
-1.42011  4.74978  0.393218
-1.90056  1.50265  -0.709126
0.29016  0.233495  -1.5179
3.63367  4.99243  2.33032
1.39149  1.47067  -1.94545
-0.13545  5.70763  1.01806
-2.24061  2.84379  -0.187793
-0.773738  0.300009  -1.15656
4.53338  3.59719  2.98194
1.27363  0.730353  -1.78327
1.50634  5.95405  1.66968
-1.85002  4.30123  0.393218
-1.77479  1.0196  -0.709126
0.598911  0.138941  -1.5179
3.09007  5.39448  2.33032
1.47532  1.54444  -1.94545
-0.745711  5.46241  1.01806
-2.3366  2.28399  -0.187793
-0.460925  0.024699  -1.15656
4.21263  4.17136  2.98194
1.48427  0.79486  -1.78327
0.830815  5.98275  1.66968
-2.19793  3.78647  0.393218
-1.56919  0.564765  -0.709126
4.6104  2.61907  3.60678
0.919201  0.0979258  -1.5179
2.48633  5.69888  2.33032
1.54547  1.63132  -1.94545
-1.30575  5.11758  1.01806
-2.3366  1.71601  -0.187793
-0.106083  -0.193786  -1.15656
3.79946  4.68306  2.98194
1.68097  0.894036  -1.78327
0.160161  5.89687  1.66968
-2.45385  3.22032  0.393218
-1.28968  0.151214  -0.709126
4.45385  3.22032  3.60678
1.24182  0.11163  -1.5179
1.59993  1.72881  -1.94545
-1.79946  4.68306  1.01806
-2.24061  1.15621  -0.187793
0.280578  -0.349159  -1.15656
3.30575  5.11758  2.98194
1.85808  1.02503  -1.78327
-0.486332  5.69888  1.66968
-2.6104  2.61907  0.393218
-0.944297  -0.20915  -0.709126
4.19793  3.78647  3.60678
1.55747  0.17966  -1.5179
1.63713  1.8341  -1.94545
-2.21263  4.17136  1.01806
-2.0514  0.62068  -0.187793
4.3366  2.28399  4.18779
0.687936  -0.436951  -1.15656
2.74571  5.46241  2.98194
2.01051  1.18407  -1.78327
-1.09007  5.39448  1.66968
-2.66309  2  0.393218
-0.542982  -0.505961  -0.709126
3.85002  4.30123  3.60678
1.85709  0.300057  -1.5179
0.493664  5.95405  2.33032
1.65601  1.94417  -1.94545
-2.53338  3.59719  1.01806
-1.7744  0.124832  -0.187793
4.24061  2.84379  4.18779
1.10427  -0.454637  -1.15656
2.13387  1.36658  -1.78327
-1.63367  4.99243  1.66968
-2.6104  1.38093  0.393218
-0.0972777  -0.730681  -0.709126
3.42011  4.74978  3.60678
2.13206  0.469359  -1.5179
-0.167291  5.8116  2.33032
-2.75248  2.97707  1.01806
-1.41759  -0.317072  -0.187793
4.0514  3.37932  4.18779
1.51761  -0.401707  -1.15656
2.22461  1.56732  -1.78327
-2.10151  4.5043  1.66968
-2.45385  0.779678  0.393218
0.379993  -0.876843  -0.709126
2.92059  5.11923  3.60678
2.37445  0.682694  -1.5179
-0.794664  5.5595  2.33032
-2.86363  2.32884  1.01806
-0.991228  -0.692318  -0.187793
3.7744  3.87517  4.18779
1.91605  -0.279685  -1.15656
2.28012  1.7805  -1.78327
-2.48013  3.94412  1.66968
-2.19793  0.213528  0.393218
3.90056  2.49735  4.70913
0.8751  -0.940244  -0.709126
2.36581  5.39894  3.60678
2.57731  0.933926  -1.5179
-1.37041  5.205  2.33032
-2.86363  1.67116  1.01806
-0.507582  -0.99011  -0.187793
3.41759  4.31707  4.18779
2.28814  -0.0920801  -1.15656
0.18307  5.79057  2.98194
-2.75863  3.32801  1.66968
-1.85002  -0.301228  0.393218
3.77479  2.9804  4.70913
1.3738  -0.919059  -0.709126
2.73479  1.21583  -1.5179
-1.87796  4.7583  2.33032
-2.75248  1.02293  1.01806
0.0194344  -1.20188  -0.187793
2.99123  4.69232  4.18779
2.62318  0.15571  -1.15656
-0.445789  5.59798  2.98194
-2.929  2.67369  1.66968
-1.42011  -0.749783  0.393218
3.56919  3.43524  4.70913
1.86175  -0.813899  -0.709126
2.84236  1.52029  -1.5179
-2.30272  4.23225  2.33032
-2.53338  0.402811  1.01806
3.448  2.20836  5.15656
0.57466  -1.32154  -0.187793
2.50758  4.99011  4.18779
2.91152  0.456557  -1.15656
-1.03305  5.30189  2.98194
-2.98634  2  1.66968
-0.920587  -1.11923  0.393218
3.28968  3.84879  4.70913
2.3249  -0.627788  -0.709126
0.534722  5.63342  3.60678
2.89693  1.83855  -1.5179
-2.63246  3.64198  2.33032
-2.21263  -0.171359  1.01806
3.37758  2.61907  5.15656
1.14212  -1.34565  -0.187793
3.14487  0.801806  -1.15656
-1.56183  4.91081  2.98194
-2.929  1.32631  1.66968
-0.365808  -1.39894  0.393218
2.9443  4.20915  4.70913
2.74994  -0.36608  -0.709126
-0.0726371  5.50253  3.60678
-2.85771  3.00447  2.33032
-1.79946  -0.683063  1.01806
3.23875  3.01198  5.15656
1.70549  -1.27351  -0.187793
3.31651  1.18153  -1.15656
-2.01691  4.43599  2.98194
-2.75863  0.671992  1.66968
0.228262  -1.58088  0.393218
2.54298  4.50596  4.70913
3.12464  -0.0363039  -0.709126
-0.649138  5.27087  3.60678
-2.97198  2.33807  2.33032
-1.30575  -1.11758  1.01806
3.03552  3.37577  5.15656
2.24857  -1.10719  -0.187793
3.42151  1.58479  -1.15656
-2.3852  3.89109  2.98194
-2.48013  0.0558831  1.66968
2.87641  2.32174  5.5179
0.844534  -1.65979  0.393218
3.43822  0.352053  -0.709126
-1.1782  4.94512  3.60678
-2.97198  1.66193  2.33032
-0.745711  -1.46241  1.01806
2.77374  3.69999  5.15656
2.75573  -0.851487  -0.187793
0.294506  5.27351  4.18779
-2.6561  3.29178  2.98194
-2.10151  -0.504297  1.66968
2.79504  2.63423  5.5179
1.46528  -1.63342  0.393218
3.68165  0.787818  -0.709126
-1.64459  4.53464  3.60678
-2.85771  0.99553  2.33032
-0.13545  -1.70763  1.01806
2.46093  3.9753  5.15656
3.21238  -0.513751  -0.187793
-0.248572  5.10719  4.18779
-2.82183  2.65532  2.98194
-1.63367  -0.992434  1.66968
2.66204  2.92847  5.5179
2.07264  -1.50253  0.393218
3.84794  1.25845  -0.709126
-2.03491  4.05124  3.60678
-2.63246  0.358022  2.33032
2.29412  2.11015  5.78327
0.507476  -1.84619  1.01806
3.60538  -0.103699  -0.187793
-0.75573  4.85149  4.18779
-2.8776  2  2.98194
-1.09007  -1.39448  1.66968
2.48122  3.196  5.5179
2.64914  -1.27087  0.393218
0.6262  4.91906  4.70913
3.93229  1.75043  -0.709126
-2.33791  3.50883  3.60678
-2.30272  -0.232249  2.33032
2.25689  2.32727  5.78327
1.16457  -1.87411  1.01806
3.92343  0.366873  -0.187793
-1.21238  4.51375  4.18779
-2.82183  1.34468  2.98194
-0.486332  -1.69888  1.66968
2.25779  3.42912  5.5179
3.1782  -0.945117  0.393218
0.138253  4.8139  4.70913
-2.5449  2.92302  3.60678
-1.87796  -0.758302  2.33032
2.1835  2.53498  5.78327
1.81693  -1.79057  1.01806
4.15738  0.884426  -0.187793
-1.60538  4.1037  4.18779
-2.6561  0.708217  2.98194
0.160161  -1.89687  1.66968
3.64459  -0.534637  0.393218
-0.324903  4.62779  4.70913
-2.6499  2.31065  3.60678
-1.37041  -1.205  2.33032
2.07607  2.72729  5.78327
2.44579  -1.59798  1.01806
4.3005  1.43407  -0.187793
-1.92343  3.63313  4.18779
-2.3852  0.108914  2.98194
1.64891  2.11127  5.94545
0.830815  -1.98275  1.66968
4.03491  -0.0512399  0.393218
-0.749943  4.36608  4.70913
-2.6499  1.68935  3.60678
-0.794664  -1.5595  2.33032
1.93768  2.89869  5.78327
3.03305  -1.30189  1.01806
0.482392  4.40171  5.15656
-2.15738  3.11557  4.18779
-2.01691  -0.435987  2.98194
1.62077  2.21933  5.94545
1.50634  -1.95405  1.66968
4.33791  0.491167  0.393218
-1.12464  4.0363  4.70913
-2.5449  1.07698  3.60678
-0.167291  -1.8116  2.33032
3.56183  -0.910808  1.01806
0.0839472  4.27968  5.15656
-2.3005  2.56593  4.18779
-1.56183  -0.910808  2.98194
1.57477  2.32109  5.94545
2.16729  -1.8116  1.66968
4.5449  1.07698  0.393218
-1.43822  3.64795  4.70913
-2.33791  0.491167  3.60678
0.493664  -1.95405  2.33032
4.01691  -0.435987  1.01806
-0.288145  4.09208  5.15656
-2.34867  2  4.18779
-1.03305  -1.30189  2.98194
1.51224  2.41361  5.94545
2.79466  -1.5595  1.66968
0.758185  3.88837  5.5179
4.6499  1.68935  0.393218
-1.68165  3.21218  4.70913
-2.03491  -0.0512399  3.60678
1.16918  -1.98275  2.33032
4.3852  0.108914  1.01806
-0.623179  3.84429  5.15656
-2.3005  1.43407  4.18779
-0.445789  -1.59798  2.98194
1.43497  2.49423  5.94545
3.37041  -1.205  1.66968
0.442527  3.82034  5.5179
-1.84794  2.74155  4.70913
-1.64459  -0.534637  3.60678
1.83984  -1.89687  2.33032
4.6561  0.708217  1.01806
-0.911518  3.54344  5.15656
-2.15738  0.884426  4.18779
0.18307  -1.79057  2.98194
1.34519  2.56063  5.94545
3.87796  -0.758302  1.66968
0.142907  3.69994  5.5179
-1.93229  2.24957  4.70913
-1.1782  -0.945117  3.60678
2.48633  -1.69888  2.33032
4.82183  1.34468  1.01806
-1.14487  3.19819  5.15656
-1.92343  0.366873  4.18779
0.83543  -1.87411  2.98194
1.24548  2.6109  5.94545
4.30272  -0.232249  1.66968
-0.132056  3.53064  5.5179
-1.93229  1.75043  4.70913
-0.649138  -1.27087  3.60678
3.09007  -1.39448  2.33032
0.72637  3.26965  5.78327
-1.31651  2.81847  5.15656
-1.60538  -0.103699  4.18779
1.49252  -1.84619  2.98194
1.13871  2.6436  5.94545
4.63246  0.358022  1.66968
-0.374452  3.31731  5.5179
-1.84794  1.25845  4.70913
-0.0726371  -1.50253  3.60678
3.63367  -0.992434  2.33032
0.515735  3.20514  5.78327
-1.42151  2.41521  5.15656
-1.21238  -0.513751  4.18779
2.13545  -1.70763  2.98194
1.02794  2.65779  5.94545
4.85771  0.99553  1.66968
-0.577308  3.06607  5.5179
-1.68165  0.787818  4.70913
0.534722  -1.63342  3.60678
4.10151  -0.504297  2.33032
0.319031  3.10596  5.78327
-1.45685  2  5.15656
-0.75573  -0.851487  4.18779
2.74571  -1.46241  2.98194
0.916374  2.65305  5.94545
4.97198  1.66193  1.66968
-0.734787  2.78417  5.5179
-1.43822  0.352053  4.70913
1.15547  -1.65979  3.60678
4.48013  0.0558831  2.33032
0.141917  2.97497  5.78327
-1.42151  1.58479  5.15656
-0.248572  -1.10719  4.18779
3.30575  -1.11758  2.98194
0.807212  2.62952  5.94545
-0.84236  2.47971  5.5179
-1.12464  -0.0363039  4.70913
1.77174  -1.58088  3.60678
4.75863  0.671992  2.33032
-0.0105112  2.81593  5.78327
-1.31651  1.18153  5.15656
0.294506  -1.27351  4.18779
3.79946  -0.683063  2.98194
0.703596  2.58788  5.94545
-0.896931  2.16145  5.5179
-0.749943  -0.36608  4.70913
2.36581  -1.39894  3.60678
4.929  1.32631  2.33032
-0.133869  2.63342  5.78327
-1.14487  0.801806  5.15656
0.857879  -1.34565  4.18779
4.21263  -0.171359  2.98194
0.608506  2.52933  5.94545
-0.896931  1.83855  5.5179
-0.324903  -0.627788  4.70913
2.92059  -1.11923  3.60678
-0.224607  2.43268  5.78327
-0.911518  0.456557  5.15656
1.42534  -1.32154  4.18779
4.53338  0.402811  2.98194
0.52468  2.45556  5.94545
-0.84236  1.52029  5.5179
0.138253  -0.813899  4.70913
3.42011  -0.749783  3.60678
-0.280116  2.2195  5.78327
-0.623179  0.15571  5.15656
1.98057  -1.20188  4.18779
4.75248  1.02293  2.98194
0.454527  2.36868  5.94545
-0.734787  1.21583  5.5179
0.6262  -0.919059  4.70913
3.85002  -0.301228  3.60678
-0.298798  2  5.78327
-0.288145  -0.0920801  5.15656
2.50758  -0.99011  4.18779
4.86363  1.67116  2.98194
0.400067  2.27119  5.94545
-0.577308  0.933926  5.5179
1.1249  -0.940244  4.70913
4.19793  0.213528  3.60678
-0.280116  1.7805  5.78327
0.0839472  -0.279685  5.15656
2.99123  -0.692318  4.18779
0.362866  2.1659  5.94545
-0.374452  0.682694  5.5179
1.62001  -0.876843  4.70913
4.45385  0.779678  3.60678
-0.224607  1.56732  5.78327
0.482392  -0.401707  5.15656
3.41759  -0.317072  4.18779
0.343993  2.05583  5.94545
-0.132056  0.469359  5.5179
2.09728  -0.730681  4.70913
4.6104  1.38093  3.60678
-0.133869  1.36658  5.78327
0.895728  -0.454637  5.15656
3.7744  0.124832  4.18779
0.343993  1.94417  5.94545
0.142907  0.300057  5.5179
2.54298  -0.505961  4.70913
-0.0105112  1.18407  5.78327
1.31206  -0.436951  5.15656
4.0514  0.62068  4.18779
0.362866  1.8341  5.94545
0.442527  0.17966  5.5179
2.9443  -0.20915  4.70913
0.141917  1.02503  5.78327
1.71942  -0.349159  5.15656
4.24061  1.15621  4.18779
0.400067  1.72881  5.94545
0.758185  0.11163  5.5179
3.28968  0.151214  4.70913
0.319031  0.894036  5.78327
2.10608  -0.193786  5.15656
4.3366  1.71601  4.18779
0.454527  1.63132  5.94545
1.0808  0.0979258  5.5179
3.56919  0.564765  4.70913
0.515735  0.79486  5.78327
2.46093  0.024699  5.15656
0.52468  1.54444  5.94545
1.40109  0.138941  5.5179
3.77479  1.0196  4.70913
0.72637  0.730353  5.78327
2.77374  0.300009  5.15656
0.608506  1.47067  5.94545
1.70984  0.233495  5.5179
3.90056  1.50265  4.70913
0.944877  0.702372  5.78327
3.03552  0.624225  5.15656
0.703596  1.41212  5.94545
1.99817  0.378868  5.5179
1.16497  0.711722  5.78327
3.23875  0.98802  5.15656
0.807212  1.37048  5.94545
2.25779  0.570878  5.5179
1.38032  0.758133  5.78327
3.37758  1.38093  5.15656
0.916374  1.34695  5.94545
2.48122  0.804001  5.5179
1.58472  0.84027  5.78327
3.448  1.79164  5.15656
1.02794  1.34221  5.94545
2.66204  1.07153  5.5179
1.77231  0.95577  5.78327
1.13871  1.3564  5.94545
2.79504  1.36577  5.5179
1.93768  1.10131  5.78327
1.24548  1.3891  5.94545
2.87641  1.67826  5.5179
2.07607  1.27271  5.78327
1.34519  1.43937  5.94545
2.1835  1.46502  5.78327
1.43497  1.50577  5.94545
2.25689  1.67273  5.78327
1.51224  1.58639  5.94545
2.29412  1.88985  5.78327
1.57477  1.67891  5.94545
1.62077  1.78067  5.94545
1.64891  1.88873  5.94545
66  23  22
66  24  23
67  66  22
68  67  22
69  68  22
70  24  66
70  66  67
71  69  22
72  70  67
72  67  68
73  71  22
74  68  69
74  72  68
75  25  24
75  26  25
75  24  70
76  73  22
77  69  71
77  74  69
78  70  72
78  75  70
79  76  22
80  77  71
80  71  73
81  78  72
81  72  74
82  79  22
83  80  73
83  73  76
84  81  74
84  74  77
85  82  22
86  75  78
86  26  75
87  76  79
87  83  76
88  84  77
88  77  80
89  85  22
90  78  81
90  86  78
91  87  79
91  79  82
92  88  80
92  80  83
93  89  22
94  90  81
94  81  84
95  82  85
95  91  82
96  27  26
96  28  27
96  26  86
97  92  83
97  83  87
98  93  22
99  94  84
99  84  88
100  95  85
100  85  89
101  86  90
101  96  86
102  87  91
102  97  87
103  98  22
104  99  88
104  88  92
105  89  93
105  100  89
106  90  94
106  101  90
107  91  95
107  102  91
108  103  22
109  92  97
109  104  92
110  93  98
110  105  93
111  94  99
111  106  94
112  95  100
112  107  95
113  108  22
114  28  96
114  96  101
115  109  97
115  97  102
116  98  103
116  110  98
117  99  104
117  111  99
118  112  100
118  100  105
119  113  22
120  114  101
120  101  106
121  102  107
121  115  102
122  116  103
122  103  108
123  117  104
123  104  109
124  118  105
124  105  110
125  119  22
126  120  106
126  106  111
127  107  112
127  121  107
128  108  113
128  122  108
129  29  28
129  30  29
129  28  114
130  109  115
130  123  109
131  124  110
131  110  116
132  125  22
132  22  1
133  126  111
133  111  117
134  112  118
134  127  112
135  128  113
135  113  119
136  129  114
136  114  120
137  130  115
137  115  121
138  131  116
138  116  122
139  132  1
140  133  117
140  117  123
141  134  118
141  118  124
142  119  125
142  135  119
143  136  120
143  120  126
144  137  121
144  121  127
145  138  122
145  122  128
146  139  1
147  140  123
147  123  130
148  124  131
148  141  124
149  142  125
149  125  132
150  126  133
150  143  126
151  127  134
151  144  127
152  128  135
152  145  128
153  146  1
154  30  129
154  129  136
155  147  130
155  130  137
156  131  138
156  148  131
157  132  139
157  149  132
158  133  140
158  150  133
159  151  134
159  134  141
160  135  142
160  152  135
161  153  1
162  136  143
162  154  136
163  137  144
163  155  137
164  156  138
164  138  145
165  157  139
165  139  146
166  140  147
166  158  140
167  159  141
167  141  148
168  160  142
168  142  149
169  161  1
170  143  150
170  162  143
171  163  144
171  144  151
172  164  145
172  145  152
173  165  146
173  146  153
174  30  154
174  31  30
174  32  31
175  166  147
175  147  155
176  167  148
176  148  156
177  149  157
177  168  149
178  169  1
179  170  150
179  150  158
180  171  151
180  151  159
181  152  160
181  172  152
182  173  153
182  153  161
183  174  154
183  154  162
184  155  163
184  175  155
185  176  156
185  156  164
186  177  157
186  157  165
187  178  1
188  179  158
188  158  166
189  159  167
189  180  159
190  160  168
190  181  160
191  161  169
191  182  161
192  183  162
192  162  170
193  163  171
193  184  163
194  164  172
194  185  164
195  165  173
195  186  165
196  187  1
197  166  175
197  188  166
198  167  176
198  189  167
199  168  177
199  190  168
200  191  169
200  169  178
201  170  179
201  192  170
202  193  171
202  171  180
203  172  181
203  194  172
204  195  173
204  173  182
205  32  174
205  174  183
206  196  1
207  197  175
207  175  184
208  176  185
208  198  176
209  199  177
209  177  186
210  200  178
210  178  187
211  201  179
211  179  188
212  202  180
212  180  189
213  203  181
213  181  190
214  182  191
214  204  182
215  183  192
215  205  183
216  206  1
217  207  184
217  184  193
218  208  185
218  185  194
219  186  195
219  209  186
220  210  187
220  187  196
221  211  188
221  188  197
222  212  189
222  189  198
223  190  199
223  213  190
224  191  200
224  214  191
225  192  201
225  215  192
226  216  1
227  217  193
227  193  202
228  194  203
228  218  194
229  195  204
229  219  195
230  33  32
230  34  33
230  32  205
231  196  206
231  220  196
232  221  197
232  197  207
233  222  198
233  198  208
234  199  209
234  223  199
235  224  200
235  200  210
236  225  201
236  201  211
237  226  1
238  202  212
238  227  202
239  203  213
239  228  203
240  229  204
240  204  214
241  230  205
241  205  215
242  231  206
242  206  216
243  232  207
243  50  232
243  207  217
244  233  208
244  208  218
245  234  209
245  209  219
246  235  210
246  210  220
247  236  211
247  211  221
248  237  1
249  238  212
249  212  222
250  213  223
250  239  213
251  214  224
251  240  214
252  241  215
252  215  225
253  216  226
253  242  216
254  243  217
254  50  243
254  51  50
254  52  51
254  217  227
255  218  228
255  244  218
256  219  229
256  245  219
257  220  231
257  246  220
258  232  50
258  221  232
258  247  221
259  248  1
260  222  233
260  249  222
261  250  223
261  223  234
262  251  224
262  224  235
263  225  236
263  252  225
264  253  226
264  226  237
265  227  238
265  41  52
265  254  227
265  52  254
266  228  239
266  255  228
267  256  229
267  229  240
268  230  241
268  34  230
269  231  242
269  257  231
270  53  258
270  258  50
270  50  53
271  259  1
272  233  244
272  260  233
273  234  245
273  261  234
274  262  235
274  235  246
275  263  236
275  236  247
276  264  237
276  237  248
277  41  265
277  238  249
277  265  238
278  239  250
278  266  239
279  267  240
279  240  251
280  268  241
280  241  252
281  269  242
281  242  253
282  271  1
283  272  244
283  244  255
284  273  245
284  245  256
285  246  257
285  274  246
286  247  258
286  275  247
287  248  259
287  276  248
288  249  260
288  277  249
289  278  250
289  250  261
290  279  251
290  251  262
291  280  252
291  252  263
292  253  264
292  281  253
293  282  1
294  255  266
294  283  255
295  256  267
295  284  256
296  34  268
296  35  34
296  36  35
297  257  269
297  285  257
298  258  53
298  286  258
298  53  54
299  259  271
299  287  259
300  288  260
300  260  272
301  289  261
301  261  273
302  290  262
302  262  274
303  263  275
303  291  263
304  292  264
304  264  276
305  42  41
306  1  2
306  2  3
306  293  1
307  266  278
307  294  266
308  295  267
308  267  279
309  296  268
309  268  280
310  297  269
310  269  281
311  299  271
311  271  282
312  300  272
312  272  283
313  301  273
313  273  284
314  302  274
314  274  285
315  275  286
315  303  275
316  304  276
316  276  287
317  305  41
317  42  305
317  41  277
317  277  288
318  278  289
318  307  278
319  308  279
319  279  290
320  309  280
320  280  291
321  281  292
321  310  281
322  282  293
322  311  282
323  283  294
323  312  283
324  284  295
324  313  284
325  285  297
325  314  285
326  286  298
326  298  54
326  315  286
327  287  299
327  316  287
328  317  288
328  288  300
329  318  289
329  289  301
330  290  302
330  319  290
331  291  303
331  320  291
332  292  304
332  321  292
333  306  3
333  293  306
333  322  293
334  323  294
334  294  307
335  295  308
335  324  295
336  296  309
336  36  296
337  297  310
337  325  297
338  55  326
338  326  54
338  54  55
339  327  299
339  299  311
340  300  312
340  328  300
341  329  301
341  301  313
342  330  302
342  302  314
343  331  303
343  303  315
344  332  304
344  304  316
345  43  42
345  42  317
346  307  318
346  334  307
347  308  319
347  335  308
348  336  309
348  309  320
349  337  310
349  310  321
350  339  311
350  311  322
351  312  323
351  340  312
352  341  313
352  313  324
353  314  325
353  342  314
354  315  326
354  343  315
355  344  316
355  316  327
356  317  328
356  345  317
357  346  318
357  318  329
358  319  330
358  347  319
359  320  331
359  348  320
360  321  332
360  349  321
361  322  333
361  350  322
362  351  323
362  323  334
363  324  335
363  352  324
364  36  336
364  37  36
364  38  37
365  325  337
365  353  325
366  326  55
366  55  56
366  354  326
366  56  354
367  327  339
367  355  327
368  328  340
368  356  328
369  357  329
369  329  341
370  358  330
370  330  342
371  331  343
371  359  331
372  332  344
372  360  332
373  44  43
374  3  4
374  4  5
374  361  333
374  333  3
375  334  346
375  362  334
376  363  335
376  335  347
377  364  336
377  336  348
378  365  337
378  337  349
379  339  350
379  367  339
380  368  340
380  340  351
381  369  341
381  341  352
382  370  342
382  342  353
383  371  343
383  343  354
384  372  344
384  344  355
385  373  43
385  44  373
385  43  345
385  345  356
386  346  357
386  375  346
387  376  347
387  347  358
388  348  359
388  377  348
389  349  360
389  378  349
390  350  361
390  379  350
391  351  362
391  380  351
392  352  363
392  381  352
393  353  365
393  382  353
394  56  57
394  57  58
394  383  354
394  354  56
395  355  367
395  384  355
396  385  356
396  356  368
397  386  357
397  357  369
398  358  370
398  387  358
399  359  371
399  388  359
400  360  372
400  389  360
401  374  5
401  361  374
401  390  361
402  362  375
402  391  362
403  363  376
403  392  363
404  38  364
404  364  377
405  365  378
405  393  365
406  367  379
406  395  367
407  368  380
407  396  368
408  397  369
408  369  381
409  398  370
409  370  382
410  371  383
410  399  371
411  400  372
411  372  384
412  44  385
412  45  44
413  402  375
413  375  386
414  403  376
414  376  387
415  404  377
415  377  388
416  405  378
416  378  389
417  379  390
417  406  379
418  407  380
418  380  391
419  408  381
419  381  392
420  382  393
420  409  382
421  394  58
421  383  394
421  60  410
421  58  59
421  59  60
421  410  383
422  384  395
422  411  384
423  412  385
423  385  396
424  413  386
424  386  397
425  387  398
425  414  387
426  415  388
426  388  399
427  389  400
427  416  389
428  390  401
428  417  390
429  391  402
429  418  391
430  392  403
430  419  392
431  39  38
431  40  39
431  38  404
432  393  405
432  420  393
433  422  395
433  395  406
434  423  396
434  396  407
435  424  397
435  397  408
436  398  409
436  425  398
437  399  410
437  426  399
437  62  63
437  63  426
438  400  411
438  427  400
439  46  45
440  5  6
440  6  7
440  428  401
440  401  5
441  402  413
441  429  402
442  403  414
442  430  403
443  404  415
443  431  404
444  432  405
444  405  416
445  433  406
445  406  417
446  434  407
446  407  418
447  435  408
447  408  419
448  436  409
448  409  420
449  437  410
449  62  437
449  410  60
449  60  61
449  61  62
450  438  411
450  411  422
451  412  423
451  46  439
451  439  45
451  45  412
452  441  413
452  413  424
453  414  425
453  442  414
454  415  426
454  443  415
455  416  427
455  444  416
456  445  417
456  417  428
457  418  429
457  446  418
458  419  430
458  447  419
459  420  432
459  448  420
460  422  433
460  450  422
461  451  423
461  423  434
462  424  435
462  452  424
463  425  436
463  453  425
464  426  63
464  454  426
465  427  438
465  455  427
466  440  7
466  428  440
466  456  428
467  457  429
467  429  441
468  430  442
468  458  430
469  40  431
469  431  443
469  21  40
470  432  444
470  459  432
471  460  433
471  433  445
472  434  446
472  461  434
473  462  435
473  435  447
474  436  448
474  463  436
475  464  63
475  63  65
476  438  450
476  465  438
477  47  46
477  46  451
478  441  452
478  467  441
479  468  442
479  442  453
480  21  469
480  443  454
480  469  443
481  444  455
481  470  444
482  471  445
482  445  456
483  472  446
483  446  457
484  473  447
484  447  458
485  474  448
485  448  459
486  450  460