VARIABLES = X Y Z
ZONE N =4, E =2, DATAPACKING = POINT, ZONETYPE = FETRIANGLE
-2.77556e-17  0.2  0
-2.77556e-17  0.2  4.8
-2.77556e-17  4.8  0
-2.77556e-17  4.8  4.8
2  1  3
2  3  4
VARIABLES = X Y Z
ZONE N =16, E =14, DATAPACKING = POINT, ZONETYPE = FETRIANGLE
-2.77556e-17  0.2  0
-2.77556e-17  0.2  4.8
0.00501442  0.155496  0
0.0198062  0.113223  0
0.0436337  0.075302  0
0.075302  0.0436337  0
0.113223  0.0198062  0
0.155496  0.00501442  0
0.2  -2.77556e-17  0
0.2  -2.77556e-17  4.8
0.155496  0.00501442  4.8
0.113223  0.0198062  4.8
0.075302  0.0436337  4.8
0.0436337  0.075302  4.8
0.0198062  0.113223  4.8
0.00501442  0.155496  4.8
16  2  1
16  1  3
15  3  4
15  4  5
15  16  3
14  15  5
13  5  6
13  14  5
12  6  7
12  13  6
11  7  8
11  12  7
10  8  9
10  11  8
VARIABLES = X Y Z
ZONE N =16, E =14, DATAPACKING = POINT, ZONETYPE = FETRIANGLE
-2.77556e-17  0.2  4.8
0.00501442  0.2  4.8445
0.0198062  0.2  4.88678
0.0436337  0.2  4.9247
0.075302  0.2  4.95637
0.113223  0.2  4.98019
0.155496  0.2  4.99499
0.2  0.2  5
0.2  4.8  5
-2.77556e-17  4.8  4.8
0.00501442  4.8  4.8445
0.0198062  4.8  4.88678
0.0436337  4.8  4.9247
0.075302  4.8  4.95637
0.113223  4.8  4.98019
0.155496  4.8  4.99499
11  1  2
11  10  1
12  2  3
12  11  2
13  3  4
13  12  3
14  4  5
14  5  6
14  13  4
15  14  6
16  6  7
16  15  6
9  7  8
9  16  7
VARIABLES = X Y Z
ZONE N =25, E =23, DATAPACKING = POINT, ZONETYPE = FETRIANGLE
-2.77556e-17  0.2  0
-2.77556e-17  4.8  0
0.00501442  0.155496  0
0.0198062  0.113223  0
0.0436337  0.075302  0
0.075302  0.0436337  0
0.113223  0.0198062  0
0.155496  0.00501442  0
0.2  -2.77556e-17  0
4.8  -2.77556e-17  0
5  0.2  0
4.99499  0.155496  0
4.98019  0.113223  0
4.95637  0.075302  0
4.9247  0.0436337  0
4.88678  0.0198062  0
4.8445  0.00501442  0
5  5  0
0.2  5  0
0.00501442  4.8445  0
0.0198062  4.88678  0
0.0436337  4.9247  0
0.075302  4.95637  0
0.113223  4.98019  0
0.155496  4.99499  0
1  3  4
1  4  5
1  5  6
1  6  7
1  7  8
1  8  9
16  10  17
22  21  20
15  10  16
23  22  20
12  14  13
25  24  23
19  2  1
19  20  2
19  25  23
19  23  20
11  9  10
11  15  14
11  1  9
11  14  12
11  10  15
11  19  1
18  19  11
VARIABLES = X Y Z
ZONE N =16, E =14, DATAPACKING = POINT, ZONETYPE = FETRIANGLE
-2.77556e-17  4.8  0
-2.77556e-17  4.8  4.8
0.00501442  4.8445  0
0.0198062  4.88678  0
0.0436337  4.9247  0
0.075302  4.95637  0
0.113223  4.98019  0
0.155496  4.99499  0
0.2  5  0
0.2  5  4.8
0.00501442  4.8445  4.8
0.0198062  4.88678  4.8
0.0436337  4.9247  4.8
0.075302  4.95637  4.8
0.113223  4.98019  4.8
0.155496  4.99499  4.8
11  2  1
11  1  3
12  3  4
12  4  5
12  11  3
13  12  5
14  5  6
14  13  5
15  6  7
15  14  6
16  7  8
16  15  7
10  8  9
10  16  8
VARIABLES = X Y Z
ZONE N =40, E =56, DATAPACKING = POINT, ZONETYPE = FETRIANGLE
0.2  -2.77556e-17  4.8
0.2  0.00501442  4.8445
0.2  0.0198062  4.88678
0.2  0.0436337  4.9247
0.2  0.075302  4.95637
0.2  0.113223  4.98019
0.2  0.155496  4.99499
0.2  0.2  5
0.155496  0.00501442  4.8
0.113223  0.0198062  4.8
0.075302  0.0436337  4.8
0.0436337  0.075302  4.8
0.0198062  0.113223  4.8
0.00501442  0.155496  4.8
-2.77556e-17  0.2  4.8
0.00501442  0.2  4.8445
0.0198062  0.2  4.88678
0.0436337  0.2  4.9247
0.075302  0.2  4.95637
0.113223  0.2  4.98019
0.155496  0.2  4.99499
0.2  0.2  5
0.170244  0.0121305  4.8618
0.113646  0.0305205  4.8618
0.0655003  0.0655003  4.8618
0.15  0.0461158  4.91756
0.0305205  0.113646  4.8618
0.104894  0.0690983  4.91756
0.18161  0.0838903  4.9618
0.0121305  0.170244  4.8618
0.0690983  0.104894  4.91756
0.14663  0.0952559  4.9618
0.0461158  0.15  4.91756
0.116875  0.116875  4.9618
0.180902  0.141221  4.99021
0.0952559  0.14663  4.9618
0.163673  0.15  4.99021
0.0838903  0.18161  4.9618
0.15  0.163673  4.99021
0.141221  0.180902  4.99021
2  1  9
16  14  15
23  3  2
23  2  9
24  9  10
24  10  11
24  23  9
25  11  12
25  24  11
26  4  3
26  23  24
26  3  23
27  12  13
27  13  14
27  25  12
28  26  24
28  24  25
29  5  4
29  6  5
29  4  26
30  16  17
30  14  16
30  27  14
31  28  25
31  25  27
32  26  28
32  29  26
33  17  18
33  30  17
33  27  30
33  31  27
34  28  31
34  32  28
35  7  6
35  8  7
35  6  29
35  29  32
36  31  33
36  34  31
37  8  35
37  32  34
37  35  32
38  18  19
38  19  20
38  33  18
38  36  33
39  22  8
39  8  37
39  34  36
39  37  34
40  20  21
40  21  22
40  22  39
40  38  20
40  36  38
40  39  36
VARIABLES = X Y Z
ZONE N =4, E =2, DATAPACKING = POINT, ZONETYPE = FETRIANGLE
0.2  -2.77556e-17  0
0.2  -2.77556e-17  4.8
4.8  -2.77556e-17  4.8
4.8  -2.77556e-17  0
3  1  2
3  4  1
VARIABLES = X Y Z
ZONE N =4, E =2, DATAPACKING = POINT, ZONETYPE = FETRIANGLE
4.8  4.8  5
4.8  0.2  5
0.2  4.8  5
0.2  0.2  5
1  3  4
1  4  2
VARIABLES = X Y Z
ZONE N =40, E =56, DATAPACKING = POINT, ZONETYPE = FETRIANGLE
-2.77556e-17  4.8  4.8
0.00501442  4.8  4.8445
0.0198062  4.8  4.88678
0.0436337  4.8  4.9247
0.075302  4.8  4.95637
0.113223  4.8  4.98019
0.155496  4.8  4.99499
0.2  4.8  5
0.00501442  4.8445  4.8
0.0198062  4.88678  4.8
0.0436337  4.9247  4.8
0.075302  4.95637  4.8
0.113223  4.98019  4.8
0.155496  4.99499  4.8
0.2  5  4.8
0.2  4.99499  4.8445
0.2  4.98019  4.88678
0.2  4.95637  4.9247
0.2  4.9247  4.95637
0.2  4.88678  4.98019
0.2  4.8445  4.99499
0.2  4.8  5
0.0121305  4.82976  4.8618
0.0305205  4.88635  4.8618
0.0655003  4.9345  4.8618
0.0461158  4.85  4.91756
0.113646  4.96948  4.8618
0.0690983  4.89511  4.91756
0.0838903  4.81839  4.9618
0.170244  4.98787  4.8618
0.104894  4.9309  4.91756
0.0952559  4.85337  4.9618
0.15  4.95388  4.91756
0.116875  4.88313  4.9618
0.141221  4.8191  4.99021
0.14663  4.90474  4.9618
0.15  4.83633  4.99021
0.18161  4.91611  4.9618
0.163673  4.85  4.99021
0.180902  4.85878  4.99021
2  1  9
16  14  15
23  3  2
23  2  9
24  9  10
24  10  11
24  23  9
25  11  12
25  24  11
26  4  3
26  23  24
26  3  23
27  12  13
27  13  14
27  25  12
28  26  24
28  24  25
29  5  4
29  6  5
29  4  26
30  16  17
30  14  16
30  27  14
31  28  25
31  25  27
32  26  28
32  29  26
33  17  18
33  30  17
33  27  30
33  31  27
34  28  31
34  32  28
35  7  6
35  8  7
35  6  29
35  29  32
36  31  33
36  34  31
37  8  35
37  32  34
37  35  32
38  18  19
38  19  20
38  33  18
38  36  33
39  22  8
39  8  37
39  34  36
39  37  34
40  20  21
40  21  22
40  22  39
40  38  20
40  36  38
40  39  36
VARIABLES = X Y Z
ZONE N =4, E =2, DATAPACKING = POINT, ZONETYPE = FETRIANGLE
0.2  5  0
0.2  5  4.8
5  5  4.8
5  5  0
3  1  2
3  4  1
VARIABLES = X Y Z
ZONE N =16, E =14, DATAPACKING = POINT, ZONETYPE = FETRIANGLE
5  0.2  0
5  0.2  4.8
4.99499  0.155496  0
4.98019  0.113223  0
4.95637  0.075302  0
4.9247  0.0436337  0
4.88678  0.0198062  0
4.8445  0.00501442  0
4.8  -2.77556e-17  0
4.8  -2.77556e-17  4.8
4.99499  0.155496  4.8
4.98019  0.113223  4.8
4.95637  0.075302  4.8
4.9247  0.0436337  4.8
4.88678  0.0198062  4.8
4.8445  0.00501442  4.8
11  2  1
11  1  3
12  3  4
12  4  5
12  11  3
13  12  5
14  5  6
14  13  5
15  6  7
15  14  6
16  7  8
16  15  7
10  8  9
10  16  8
VARIABLES = X Y Z
ZONE N =4, E =2, DATAPACKING = POINT, ZONETYPE = FETRIANGLE
5  0.2  0
5  0.2  4.8
5  5  0
5  5  4.8
2  1  3
2  3  4
VARIABLES = X Y Z
ZONE N =16, E =14, DATAPACKING = POINT, ZONETYPE = FETRIANGLE
4.8  -2.77556e-17  4.8
4.8  0.00501442  4.8445
4.8  0.0198062  4.88678
4.8  0.0436337  4.9247
4.8  0.075302  4.95637
4.8  0.113223  4.98019
4.8  0.155496  4.99499
4.8  0.2  5
0.2  0.2  5
0.2  -2.77556e-17  4.8
0.2  0.00501442  4.8445
0.2  0.0198062  4.88678
0.2  0.0436337  4.9247
0.2  0.075302  4.95637
0.2  0.113223  4.98019
0.2  0.155496  4.99499
11  1  2
11  10  1
12  2  3
12  11  2
13  3  4
13  12  3
14  4  5
14  5  6
14  13  4
15  14  6
16  6  7
16  15  6
9  7  8
9  16  7
VARIABLES = X Y Z
ZONE N =18, E =16, DATAPACKING = POINT, ZONETYPE = FETRIANGLE
5  5  4.8
4.99706  4.99706  4.83418
4.98831  4.98831  4.86736
4.97403  4.97403  4.89856
4.95462  4.95462  4.92685
4.93066  4.93066  4.95142
4.90286  4.90286  4.97152
4.86124  4.86124  4.99039
4.83099  4.83099  4.99758
4.8  4.8  5
4.8  0.2  5
5  0.2  4.8
4.99499  0.2  4.8445
4.98019  0.2  4.88678
4.95637  0.2  4.9247
4.9247  0.2  4.95637
4.88678  0.2  4.98019
4.8445  0.2  4.99499
12  1  2
13  2  3
13  12  2
14  3  4
14  13  3
15  4  5
15  5  6
15  14  4
16  6  7
16  15  6
17  7  8
17  16  7
18  8  9
18  17  8
11  9  10
11  18  9
VARIABLES = X Y Z
ZONE N =18, E =16, DATAPACKING = POINT, ZONETYPE = FETRIANGLE
0.2  5  4.8
0.2  4.99499  4.8445
0.2  4.98019  4.88678
0.2  4.95637  4.9247
0.2  4.9247  4.95637
0.2  4.88678  4.98019
0.2  4.8445  4.99499
0.2  4.8  5
4.8  4.8  5
5  5  4.8
4.99706  4.99706  4.83418
4.98831  4.98831  4.86736
4.97403  4.97403  4.89856
4.95462  4.95462  4.92685
4.93066  4.93066  4.95142
4.90286  4.90286  4.97152
4.86124  4.86124  4.99039
4.83099  4.83099  4.99758
11  1  2
11  10  1
12  2  3
12  11  2
13  3  4
13  12  3
14  13  4
15  4  5
15  14  4
16  5  6
16  15  5
17  6  7
17  16  6
18  7  8
18  17  7
9  18  8
VARIABLES = X Y Z
ZONE N =40, E =56, DATAPACKING = POINT, ZONETYPE = FETRIANGLE
5  0.2  4.8
4.99499  0.2  4.8445
4.98019  0.2  4.88678
4.95637  0.2  4.9247
4.9247  0.2  4.95637
4.88678  0.2  4.98019
4.8445  0.2  4.99499
4.8  0.2  5
4.99499  0.155496  4.8
4.98019  0.113223  4.8
4.95637  0.075302  4.8
4.9247  0.0436337  4.8
4.88678  0.0198062  4.8
4.8445  0.00501442  4.8
4.8  -2.77556e-17  4.8
4.8  0.00501442  4.8445
4.8  0.0198062  4.88678
4.8  0.0436337  4.9247
4.8  0.075302  4.95637
4.8  0.113223  4.98019
4.8  0.155496  4.99499
4.8  0.2  5
4.98787  0.170244  4.8618
4.96948  0.113646  4.8618
4.9345  0.0655003  4.8618
4.95388  0.15  4.91756
4.88635  0.0305205  4.8618
4.9309  0.104894  4.91756
4.91611  0.18161  4.9618
4.82976  0.0121305  4.8618
4.89511  0.0690983  4.91756
4.90474  0.14663  4.9618
4.85  0.0461158  4.91756
4.88313  0.116875  4.9618
4.85878  0.180902  4.99021
4.85337  0.0952559  4.9618
4.85  0.163673  4.99021
4.81839  0.0838903  4.9618
4.83633  0.15  4.99021
4.8191  0.141221  4.99021
2  1  9
16  14  15
23  3  2
23  2  9
24  9  10
24  10  11
24  23  9
25  11  12
25  24  11
26  4  3
26  23  24
26  3  23
27  12  13
27  13  14
27  25  12
28  26  24
28  24  25
29  5  4
29  6  5
29  4  26
30  16  17
30  14  16
30  27  14
31  28  25
31  25  27
32  26  28
32  29  26
33  17  18
33  30  17
33  27  30
33  31  27
34  28  31
34  32  28
35  7  6
35  8  7
35  6  29
35  29  32
36  31  33
36  34  31
37  8  35
37  32  34
37  35  32
38  18  19
38  19  20
38  33  18
38  36  33
39  22  8
39  8  37
39  34  36
39  37  34
40  20  21
40  21  22
40  22  39
40  38  20
40  36  38
40  39  36
