VARIABLES = X Y Z
ZONE N =4, E =2, DATAPACKING = POINT, ZONETYPE = FETRIANGLE
-2.77556e-17  0.2  5
-2.77556e-17  4.8  5
-2.77556e-17  0.2  0
-2.77556e-17  4.8  0
1  3  4
1  4  2
VARIABLES = X Y Z
ZONE N =25, E =23, DATAPACKING = POINT, ZONETYPE = FETRIANGLE
-2.77556e-17  0.2  5
-2.77556e-17  4.8  5
0.00501442  0.155496  5
0.0198062  0.113223  5
0.0436337  0.075302  5
0.075302  0.0436337  5
0.113223  0.0198062  5
0.155496  0.00501442  5
0.2  -2.77556e-17  5
4.8  -2.77556e-17  5
5  0.2  5
4.99499  0.155496  5
4.98019  0.113223  5
4.95637  0.075302  5
4.9247  0.0436337  5
4.88678  0.0198062  5
4.8445  0.00501442  5
5  5  5
0.2  5  5
0.00501442  4.8445  5
0.0198062  4.88678  5
0.0436337  4.9247  5
0.075302  4.95637  5
0.113223  4.98019  5
0.155496  4.99499  5
1  3  4
1  4  5
1  5  6
1  6  7
1  7  8
1  8  9
16  10  17
22  21  20
15  10  16
23  22  20
12  14  13
25  24  23
19  2  1
19  20  2
19  25  23
19  23  20
11  9  10
11  15  14
11  1  9
11  14  12
11  10  15
11  19  1
18  19  11
VARIABLES = X Y Z
ZONE N =16, E =14, DATAPACKING = POINT, ZONETYPE = FETRIANGLE
-2.77556e-17  0.2  0
0.00501442  0.155496  0
0.0198062  0.113223  0
0.0436337  0.075302  0
0.075302  0.0436337  0
0.113223  0.0198062  0
0.155496  0.00501442  0
0.2  -2.77556e-17  0
0.2  -2.77556e-17  5
-2.77556e-17  0.2  5
0.00501442  0.155496  5
0.0198062  0.113223  5
0.0436337  0.075302  5
0.075302  0.0436337  5
0.113223  0.0198062  5
0.155496  0.00501442  5
11  1  2
11  10  1
12  2  3
12  3  4
12  11  2
13  12  4
14  4  5
14  13  4
15  5  6
15  6  7
15  14  5
16  15  7
9  7  8
9  16  7
VARIABLES = X Y Z
ZONE N =16, E =14, DATAPACKING = POINT, ZONETYPE = FETRIANGLE
-2.77556e-17  4.8  0
0.00501442  4.8445  0
0.0198062  4.88678  0
0.0436337  4.9247  0
0.075302  4.95637  0
0.113223  4.98019  0
0.155496  4.99499  0
0.2  5  0
0.2  5  5
-2.77556e-17  4.8  5
0.00501442  4.8445  5
0.0198062  4.88678  5
0.0436337  4.9247  5
0.075302  4.95637  5
0.113223  4.98019  5
0.155496  4.99499  5
11  1  2
11  10  1
12  2  3
12  3  4
12  11  2
13  12  4
14  4  5
14  13  4
15  5  6
15  6  7
15  14  5
16  15  7
9  7  8
9  16  7
VARIABLES = X Y Z
ZONE N =25, E =23, DATAPACKING = POINT, ZONETYPE = FETRIANGLE
-2.77556e-17  0.2  0
-2.77556e-17  4.8  0
0.00501442  0.155496  0
0.0198062  0.113223  0
0.0436337  0.075302  0
0.075302  0.0436337  0
0.113223  0.0198062  0
0.155496  0.00501442  0
0.2  -2.77556e-17  0
4.8  -2.77556e-17  0
5  0.2  0
4.99499  0.155496  0
4.98019  0.113223  0
4.95637  0.075302  0
4.9247  0.0436337  0
4.88678  0.0198062  0
4.8445  0.00501442  0
5  5  0
0.2  5  0
0.00501442  4.8445  0
0.0198062  4.88678  0
0.0436337  4.9247  0
0.075302  4.95637  0
0.113223  4.98019  0
0.155496  4.99499  0
1  3  4
1  4  5
1  5  6
1  6  7
1  7  8
1  8  9
16  10  17
22  21  20
15  10  16
23  22  20
12  14  13
25  24  23
19  2  1
19  20  2
19  25  23
19  23  20
11  9  10
11  15  14
11  1  9
11  14  12
11  10  15
11  19  1
18  19  11
VARIABLES = X Y Z
ZONE N =4, E =2, DATAPACKING = POINT, ZONETYPE = FETRIANGLE
0.2  -2.77556e-17  0
4.8  -2.77556e-17  0
0.2  -2.77556e-17  5
4.8  -2.77556e-17  5
4  2  1
4  1  3
VARIABLES = X Y Z
ZONE N =4, E =2, DATAPACKING = POINT, ZONETYPE = FETRIANGLE
0.2  5  0
5  5  0
0.2  5  5
5  5  5
4  2  1
4  1  3
VARIABLES = X Y Z
ZONE N =16, E =14, DATAPACKING = POINT, ZONETYPE = FETRIANGLE
5  0.2  0
4.99499  0.155496  0
4.98019  0.113223  0
4.95637  0.075302  0
4.9247  0.0436337  0
4.88678  0.0198062  0
4.8445  0.00501442  0
4.8  -2.77556e-17  0
4.8  -2.77556e-17  5
5  0.2  5
4.99499  0.155496  5
4.98019  0.113223  5
4.95637  0.075302  5
4.9247  0.0436337  5
4.88678  0.0198062  5
4.8445  0.00501442  5
11  1  2
11  10  1
12  2  3
12  3  4
12  11  2
13  12  4
14  4  5
14  13  4
15  5  6
15  6  7
15  14  5
16  15  7
9  7  8
9  16  7
VARIABLES = X Y Z
ZONE N =4, E =2, DATAPACKING = POINT, ZONETYPE = FETRIANGLE
5  0.2  5
5  5  5
5  0.2  0
5  5  0
1  3  4
1  4  2
