VARIABLES = X Y Z
ZONE N =4, E =2, DATAPACKING = POINT, ZONETYPE = FETRIANGLE
-2.77556e-17  0.2  5
-2.77556e-17  4.8  5
-2.77556e-17  0.2  0
-2.77556e-17  4.8  0
1  3  4
1  4  2
VARIABLES = X Y Z
ZONE N =18, E =16, DATAPACKING = POINT, ZONETYPE = FETRIANGLE
-2.77556e-17  0.2  5
-2.77556e-17  4.8  5
0.00501442  0.155496  5
0.0198062  0.113223  5
0.0436337  0.075302  5
0.075302  0.0436337  5
0.113223  0.0198062  5
0.155496  0.00501442  5
0.2  -2.77556e-17  5
5  0  5
5  5  5
0.2  5  5
0.00501442  4.8445  5
0.0198062  4.88678  5
0.0436337  4.9247  5
0.075302  4.95637  5
0.113223  4.98019  5
0.155496  4.99499  5
9  1  3
9  3  4
9  4  5
9  5  6
9  6  7
9  7  8
15  14  13
16  15  13
18  17  16
12  2  1
12  13  2
12  1  9
12  16  13
12  18  16
11  9  10
11  12  9
VARIABLES = X Y Z
ZONE N =16, E =14, DATAPACKING = POINT, ZONETYPE = FETRIANGLE
-2.77556e-17  0.2  0
0.00501442  0.155496  0
0.0198062  0.113223  0
0.0436337  0.075302  0
0.075302  0.0436337  0
0.113223  0.0198062  0
0.155496  0.00501442  0
0.2  -2.77556e-17  0
0.2  -2.77556e-17  5
-2.77556e-17  0.2  5
0.00501442  0.155496  5
0.0198062  0.113223  5
0.0436337  0.075302  5
0.075302  0.0436337  5
0.113223  0.0198062  5
0.155496  0.00501442  5
11  1  2
11  10  1
12  2  3
12  3  4
12  11  2
13  12  4
14  4  5
14  13  4
15  5  6
15  6  7
15  14  5
16  15  7
9  7  8
9  16  7
VARIABLES = X Y Z
ZONE N =16, E =14, DATAPACKING = POINT, ZONETYPE = FETRIANGLE
-2.77556e-17  4.8  0
0.00501442  4.8445  0
0.0198062  4.88678  0
0.0436337  4.9247  0
0.075302  4.95637  0
0.113223  4.98019  0
0.155496  4.99499  0
0.2  5  0
0.2  5  5
-2.77556e-17  4.8  5
0.00501442  4.8445  5
0.0198062  4.88678  5
0.0436337  4.9247  5
0.075302  4.95637  5
0.113223  4.98019  5
0.155496  4.99499  5
11  1  2
11  10  1
12  2  3
12  3  4
12  11  2
13  12  4
14  4  5
14  13  4
15  5  6
15  6  7
15  14  5
16  15  7
9  7  8
9  16  7
VARIABLES = X Y Z
ZONE N =18, E =16, DATAPACKING = POINT, ZONETYPE = FETRIANGLE
-2.77556e-17  0.2  0
-2.77556e-17  4.8  0
0.00501442  0.155496  0
0.0198062  0.113223  0
0.0436337  0.075302  0
0.075302  0.0436337  0
0.113223  0.0198062  0
0.155496  0.00501442  0
0.2  -2.77556e-17  0
5  0  0
5  5  0
0.2  5  0
0.00501442  4.8445  0
0.0198062  4.88678  0
0.0436337  4.9247  0
0.075302  4.95637  0
0.113223  4.98019  0
0.155496  4.99499  0
9  1  3
9  3  4
9  4  5
9  5  6
9  6  7
9  7  8
15  14  13
16  15  13
18  17  16
12  2  1
12  13  2
12  1  9
12  16  13
12  18  16
11  9  10
11  12  9
VARIABLES = X Y Z
ZONE N =4, E =2, DATAPACKING = POINT, ZONETYPE = FETRIANGLE
0.2  -2.77556e-17  0
5  0  0
0.2  -2.77556e-17  5
5  0  5
4  2  1
4  1  3
VARIABLES = X Y Z
ZONE N =4, E =2, DATAPACKING = POINT, ZONETYPE = FETRIANGLE
0.2  5  0
5  5  0
0.2  5  5
5  5  5
4  2  1
4  1  3
VARIABLES = X Y Z
ZONE N =4, E =2, DATAPACKING = POINT, ZONETYPE = FETRIANGLE
5  0  0
5  0  5
5  5  0
5  5  5
2  1  3
2  3  4
