VARIABLES = X Y Z
ZONE N =4, E =2, DATAPACKING = POINT, ZONETYPE = FETRIANGLE
-2.77556e-17  0.2  5
-2.77556e-17  4.8  5
-2.77556e-17  0.2  0.2
-2.77556e-17  4.8  0.2
1  3  4
1  4  2
VARIABLES = X Y Z
ZONE N =25, E =23, DATAPACKING = POINT, ZONETYPE = FETRIANGLE
-2.77556e-17  0.2  5
-2.77556e-17  4.8  5
0.00501442  0.155496  5
0.0198062  0.113223  5
0.0436337  0.075302  5
0.075302  0.0436337  5
0.113223  0.0198062  5
0.155496  0.00501442  5
0.2  -2.77556e-17  5
4.8  -2.77556e-17  5
5  0.2  5
4.99499  0.155496  5
4.98019  0.113223  5
4.95637  0.075302  5
4.9247  0.0436337  5
4.88678  0.0198062  5
4.8445  0.00501442  5
5  5  5
0.2  5  5
0.00501442  4.8445  5
0.0198062  4.88678  5
0.0436337  4.9247  5
0.075302  4.95637  5
0.113223  4.98019  5
0.155496  4.99499  5
1  3  4
1  4  5
1  5  6
1  6  7
1  7  8
1  8  9
16  10  17
22  21  20
15  10  16
23  22  20
12  14  13
25  24  23
19  2  1
19  20  2
19  25  23
19  23  20
11  9  10
11  15  14
11  1  9
11  14  12
11  10  15
11  19  1
18  19  11
VARIABLES = X Y Z
ZONE N =17, E =15, DATAPACKING = POINT, ZONETYPE = FETRIANGLE
-2.77556e-17  0.2  0.2
0.00681483  0.148236  0.148236
0.0267949  0.1  0.1
0.0585786  0.0585786  0.0585786
0.0955003  0.029472  0.029472
0.129746  0.0127451  0.0127451
0.162786  0.00349269  0.00349269
0.181311  0.000875086  0.000875086
0.2  -2.77556e-17  0
0.2  -2.77556e-17  5
-2.77556e-17  0.2  5
0.00501442  0.155496  5
0.0198062  0.113223  5
0.0436337  0.075302  5
0.075302  0.0436337  5
0.113223  0.0198062  5
0.155496  0.00501442  5
12  1  2
12  11  1
13  2  3
13  12  2
14  3  4
14  13  3
15  4  5
15  14  4
16  5  6
16  15  5
17  6  7
17  7  8
17  16  6
10  8  9
10  17  8
VARIABLES = X Y Z
ZONE N =17, E =15, DATAPACKING = POINT, ZONETYPE = FETRIANGLE
-2.77556e-17  4.8  0.2
0.00681483  4.85176  0.148236
0.0267949  4.9  0.1
0.0585786  4.94142  0.0585786
0.0955003  4.97053  0.029472
0.129746  4.98725  0.0127451
0.162786  4.99651  0.00349269
0.181311  4.99912  0.000875086
0.2  5  0
0.2  5  5
-2.77556e-17  4.8  5
0.00501442  4.8445  5
0.0198062  4.88678  5
0.0436337  4.9247  5
0.075302  4.95637  5
0.113223  4.98019  5
0.155496  4.99499  5
12  1  2
12  11  1
13  2  3
13  12  2
14  3  4
14  13  3
15  4  5
15  14  4
16  5  6
16  15  5
17  6  7
17  7  8
17  16  6
10  8  9
10  17  8
VARIABLES = X Y Z
ZONE N =18, E =16, DATAPACKING = POINT, ZONETYPE = FETRIANGLE
-2.77556e-17  0.2  0.2
0.00681483  0.148236  0.148236
0.0267949  0.1  0.1
0.0585786  0.0585786  0.0585786
0.0955003  0.029472  0.029472
0.129746  0.0127451  0.0127451
0.162786  0.00349269  0.00349269
0.181311  0.000875086  0.000875086
0.2  -2.77556e-17  0
0.2  5  0
-2.77556e-17  4.8  0.2
0.00681483  4.85176  0.148236
0.0267949  4.9  0.1
0.0585786  4.94142  0.0585786
0.0955003  4.97053  0.029472
0.129746  4.98725  0.0127451
0.162786  4.99651  0.00349269
0.181311  4.99912  0.000875086
11  1  2
12  2  3
12  11  2
13  3  4
13  12  3
14  4  5
14  13  4
15  5  6
15  14  5
16  6  7
16  15  6
17  16  7
18  7  8
18  8  9
18  17  7
10  18  9
VARIABLES = X Y Z
ZONE N =4, E =2, DATAPACKING = POINT, ZONETYPE = FETRIANGLE
0.2  -2.77556e-17  0
4.8  -2.77556e-17  0
0.2  -2.77556e-17  5
4.8  -2.77556e-17  5
4  2  1
4  1  3
VARIABLES = X Y Z
ZONE N =4, E =2, DATAPACKING = POINT, ZONETYPE = FETRIANGLE
0.2  5  0
5  5  0
0.2  5  5
5  5  5
4  2  1
4  1  3
VARIABLES = X Y Z
ZONE N =16, E =14, DATAPACKING = POINT, ZONETYPE = FETRIANGLE
5  0.2  0
4.99499  0.155496  0
4.98019  0.113223  0
4.95637  0.075302  0
4.9247  0.0436337  0
4.88678  0.0198062  0
4.8445  0.00501442  0
4.8  -2.77556e-17  0
4.8  -2.77556e-17  5
5  0.2  5
4.99499  0.155496  5
4.98019  0.113223  5
4.95637  0.075302  5
4.9247  0.0436337  5
4.88678  0.0198062  5
4.8445  0.00501442  5
11  1  2
11  10  1
12  2  3
12  3  4
12  11  2
13  12  4
14  4  5
14  13  4
15  5  6
15  6  7
15  14  5
16  15  7
9  7  8
9  16  7
VARIABLES = X Y Z
ZONE N =4, E =2, DATAPACKING = POINT, ZONETYPE = FETRIANGLE
5  0.2  5
5  5  5
5  0.2  0
5  5  0
1  3  4
1  4  2
VARIABLES = X Y Z
ZONE N =11, E =9, DATAPACKING = POINT, ZONETYPE = FETRIANGLE
0.2  5  0
5  5  0
0.2  -2.77556e-17  0
4.8  -2.77556e-17  0
5  0.2  0
4.99499  0.155496  0
4.98019  0.113223  0
4.95637  0.075302  0
4.9247  0.0436337  0
4.88678  0.0198062  0
4.8445  0.00501442  0
9  11  10
7  9  8
7  11  9
5  1  3
5  3  4
5  7  6
5  4  11
5  11  7
2  1  5
