VARIABLES = X Y Z
ZONE N =4, E =2, DATAPACKING = POINT, ZONETYPE = FETRIANGLE
0  0  0
-2.22045e-16  0  1
0  2  0
-2.22045e-16  2  1
2  1  3
2  3  4
VARIABLES = X Y Z
ZONE N =11, E =9, DATAPACKING = POINT, ZONETYPE = FETRIANGLE
1  0  2
5  0  2
5  0  0
0  0  0
-2.22045e-16  0  1
0.0250721  0  1.22252
0.0990311  0  1.43388
0.218169  0  1.62349
0.37651  0  1.78183
0.566116  0  1.90097
0.777479  0  1.97493
11  9  10
1  4  5
1  5  6
1  6  7
1  7  8
1  8  9
1  9  11
3  4  1
2  3  1
VARIABLES = X Y Z
ZONE N =16, E =14, DATAPACKING = POINT, ZONETYPE = FETRIANGLE
-2.22045e-16  0  1
0.0250721  0  1.22252
0.0990311  0  1.43388
0.218169  0  1.62349
0.37651  0  1.78183
0.566116  0  1.90097
0.777479  0  1.97493
1  0  2
1  2  2
-2.22045e-16  2  1
0.0250721  2  1.22252
0.0990311  2  1.43388
0.218169  2  1.62349
0.37651  2  1.78183
0.566116  2  1.90097
0.777479  2  1.97493
11  1  2
11  10  1
12  2  3
12  11  2
13  3  4
13  12  3
14  4  5
14  13  4
15  5  6
15  14  5
16  6  7
16  15  6
9  7  8
9  16  7
VARIABLES = X Y Z
ZONE N =4, E =2, DATAPACKING = POINT, ZONETYPE = FETRIANGLE
0  0  0
0  2  0
5  0  0
5  2  0
4  2  1
4  1  3
VARIABLES = X Y Z
ZONE N =11, E =9, DATAPACKING = POINT, ZONETYPE = FETRIANGLE
1  2  2
5  2  2
5  2  0
0  2  0
-2.22045e-16  2  1
0.0250721  2  1.22252
0.0990311  2  1.43388
0.218169  2  1.62349
0.37651  2  1.78183
0.566116  2  1.90097
0.777479  2  1.97493
11  9  10
1  4  5
1  5  6
1  6  7
1  7  8
1  8  9
1  9  11
3  4  1
2  3  1
VARIABLES = X Y Z
ZONE N =4, E =2, DATAPACKING = POINT, ZONETYPE = FETRIANGLE
1  2  2
5  2  2
1  0  2
5  0  2
2  1  3
2  3  4
VARIABLES = X Y Z
ZONE N =4, E =2, DATAPACKING = POINT, ZONETYPE = FETRIANGLE
5  0  0
5  0  2
5  2  0
5  2  2
2  1  3
2  3  4
