VARIABLES = X Y Z
ZONE N =106, E =104, DATAPACKING = POINT, ZONETYPE = FETRIANGLE
0.7  0  8
49.3  0  8
49.3  0.964293  7.94167
49.3  1.91453  7.76753
49.3  2.83684  7.48013
49.3  3.71779  7.08365
49.3  4.54452  6.58387
49.3  5.30498  5.98809
49.3  5.98809  5.30498
49.3  6.58387  4.54452
49.3  7.08365  3.71779
49.3  7.48013  2.83684
49.3  7.76753  1.91453
49.3  7.94167  0.964293
49.3  8  4.04257e-15
49.3  7.94167  -0.964293
49.3  7.76753  -1.91453
49.3  7.48013  -2.83684
49.3  7.08365  -3.71779
49.3  6.58387  -4.54452
49.3  5.98809  -5.30498
49.3  5.30498  -5.98809
49.3  4.54452  -6.58387
49.3  3.71779  -7.08365
49.3  2.83684  -7.48013
49.3  1.91453  -7.76753
49.3  0.964293  -7.94167
49.3  1.51906e-14  -8
49.3  -0.964293  -7.94167
49.3  -1.91453  -7.76753
49.3  -2.83684  -7.48013
49.3  -3.71779  -7.08365
49.3  -4.54452  -6.58387
49.3  -5.30498  -5.98809
49.3  -5.98809  -5.30498
49.3  -6.58387  -4.54452
49.3  -7.08365  -3.71779
49.3  -7.48013  -2.83684
49.3  -7.76753  -1.91453
49.3  -7.94167  -0.964293
49.3  -8  -8.575e-15
49.3  -7.94167  0.964293
49.3  -7.76753  1.91453
49.3  -7.48013  2.83684
49.3  -7.08365  3.71779
49.3  -6.58387  4.54452
49.3  -5.98809  5.30498
49.3  -5.30498  5.98809
49.3  -4.54452  6.58387
49.3  -3.71779  7.08365
49.3  -2.83684  7.48013
49.3  -1.91453  7.76753
49.3  -0.964293  7.94167
49.3  0  8
0.7  0  8
0.7  0.964293  7.94167
0.7  1.91453  7.76753
0.7  2.83684  7.48013
0.7  3.71779  7.08365
0.7  4.54452  6.58387
0.7  5.30498  5.98809
0.7  5.98809  5.30498
0.7  6.58387  4.54452
0.7  7.08365  3.71779
0.7  7.48013  2.83684
0.7  7.76753  1.91453
0.7  7.94167  0.964293
0.7  8  4.04257e-15
0.7  7.94167  -0.964293
0.7  7.76753  -1.91453
0.7  7.48013  -2.83684
0.7  7.08365  -3.71779
0.7  6.58387  -4.54452
0.7  5.98809  -5.30498
0.7  5.30498  -5.98809
0.7  4.54452  -6.58387
0.7  3.71779  -7.08365
0.7  2.83684  -7.48013
0.7  1.91453  -7.76753
0.7  0.964293  -7.94167
0.7  1.51906e-14  -8
0.7  -0.964293  -7.94167
0.7  -1.91453  -7.76753
0.7  -2.83684  -7.48013
0.7  -3.71779  -7.08365
0.7  -4.54452  -6.58387
0.7  -5.30498  -5.98809
0.7  -5.98809  -5.30498
0.7  -6.58387  -4.54452
0.7  -7.08365  -3.71779
0.7  -7.48013  -2.83684
0.7  -7.76753  -1.91453
0.7  -7.94167  -0.964293
0.7  -8  -8.575e-15
0.7  -7.94167  0.964293
0.7  -7.76753  1.91453
0.7  -7.48013  2.83684
0.7  -7.08365  3.71779
0.7  -6.58387  4.54452
0.7  -5.98809  5.30498
0.7  -5.30498  5.98809
0.7  -4.54452  6.58387
0.7  -3.71779  7.08365
0.7  -2.83684  7.48013
0.7  -1.91453  7.76753
0.7  -0.964293  7.94167
56  1  2
56  2  3
57  3  4
57  4  5
57  56  3
58  57  5
59  5  6
59  58  5
60  6  7
60  7  8
60  59  6
61  60  8
62  8  9
62  61  8
63  9  10
63  62  9
64  10  11
64  63  10
65  11  12
65  64  11
66  12  13
66  65  12
67  13  14
67  66  13
68  14  15
68  67  14
69  15  16
69  16  17
69  68  15
70  69  17
71  17  18
71  70  17
72  18  19
72  71  18
73  19  20
73  72  19
74  20  21
74  73  20
75  21  22
75  74  21
76  22  23
76  23  24
76  75  22
77  24  25
77  76  24
78  77  25
79  25  26
79  26  27
79  78  25
80  79  27
81  80  27
81  27  28
82  81  28
82  28  29
82  29  30
83  82  30
84  83  30
84  30  31
85  84  31
85  31  32
86  32  33
86  85  32
87  33  34
87  86  33
88  34  35
88  35  36
88  87  34
89  88  36
90  36  37
90  89  36
91  37  38
91  38  39
91  90  37
92  91  39
93  39  40
93  92  39
94  40  41
94  93  40
95  41  42
95  94  41
96  42  43
96  95  42
97  43  44
97  96  43
98  44  45
98  97  44
99  45  46
99  98  45
100  46  47
100  47  48
100  99  46
101  100  48
102  48  49
102  101  48
103  102  49
103  49  50
104  103  50
104  50  51
105  104  51
105  51  52
106  105  52
106  52  53
55  106  53
55  53  54
VARIABLES = X Y Z
ZONE N =565, E =1013, DATAPACKING = POINT, ZONETYPE = FETRIANGLE
0.7  0  8
0.544235  0  7.98245
0.396281  0  7.93068
0.263557  0  7.84728
0.152718  0  7.73644
0.0693218  0  7.60372
0.0175505  0  7.45576
0  0  7.3
0.7  0.964293  7.94167
0.7  1.91453  7.76753
0.7  2.83684  7.48013
0.7  3.71779  7.08365
0.7  4.54452  6.58387
0.7  5.30498  5.98809
0.7  5.98809  5.30498
0.7  6.58387  4.54452
0.7  7.08365  3.71779
0.7  7.48013  2.83684
0.7  7.76753  1.91453
0.7  7.94167  0.964293
0.7  8  4.04257e-15
0.7  7.94167  -0.964293
0.7  7.76753  -1.91453
0.7  7.48013  -2.83684
0.7  7.08365  -3.71779
0.7  6.58387  -4.54452
0.7  5.98809  -5.30498
0.7  5.30498  -5.98809
0.7  4.54452  -6.58387
0.7  3.71779  -7.08365
0.7  2.83684  -7.48013
0.7  1.91453  -7.76753
0.7  0.964293  -7.94167
0.7  1.51906e-14  -8
0.7  -0.964293  -7.94167
0.7  -1.91453  -7.76753
0.7  -2.83684  -7.48013
0.7  -3.71779  -7.08365
0.7  -4.54452  -6.58387
0.7  -5.30498  -5.98809
0.7  -5.98809  -5.30498
0.7  -6.58387  -4.54452
0.7  -7.08365  -3.71779
0.7  -7.48013  -2.83684
0.7  -7.76753  -1.91453
0.7  -7.94167  -0.964293
0.7  -8  -8.575e-15
0.7  -7.94167  0.964293
0.7  -7.76753  1.91453
0.7  -7.48013  2.83684
0.7  -7.08365  3.71779
0.7  -6.58387  4.54452
0.7  -5.98809  5.30498
0.7  -5.30498  5.98809
0.7  -4.54452  6.58387
0.7  -3.71779  7.08365
0.7  -2.83684  7.48013
0.7  -1.91453  7.76753
0.7  -0.964293  7.94167
0.7  0  8
0.544235  0  7.98245
0.396281  0  7.93068
0.263557  0  7.84728
0.152718  0  7.73644
0.0693218  0  7.60372
0.0175505  0  7.45576
0  0  7.3
0  0.933503  7.24007
0  1.85168  7.06125
0  2.73945  6.76649
0  3.58224  6.36063
0  4.36621  5.85032
0  5.07848  5.24395
0  5.70737  4.55148
0  6.24254  3.78427
0  6.67521  2.95492
0  6.99828  2.07705
0  7.20643  1.16508
0  7.29625  0.233977
0  7.26627  -0.700968
0  7.11697  -1.6244
0  6.85082  -2.52116
0  6.47217  -3.37653
0  5.98726  -4.17645
0  5.40403  -4.9078
0  4.73207  -5.55856
0  3.9824  -6.11804
0  3.16735  -6.57707
0  2.30029  -6.92811
0  1.39546  -7.16538
0  0.467713  -7.285
0  -0.467713  -7.285
0  -1.39546  -7.16538
0  -2.30029  -6.92811
0  -3.16735  -6.57707
0  -3.9824  -6.11804
0  -4.73207  -5.55856
0  -5.40403  -4.9078
0  -5.98726  -4.17645
0  -6.47217  -3.37653
0  -6.85082  -2.52116
0  -7.11697  -1.6244
0  -7.26627  -0.700968
0  -7.29625  0.233977
0  -7.20643  1.16508
0  -6.99828  2.07705
0  -6.67521  2.95492
0  -6.24254  3.78427
0  -5.70737  4.55148
0  -5.07848  5.24395
0  -4.36621  5.85032
0  -3.58224  6.36063
0  -2.73945  6.76649
0  -1.85168  7.06125
0  -0.933503  7.24007
0.152718  -5.79081  5.13021
0.263557  -6.13525  4.8927
0.263557  -5.87377  5.20371
0.152718  -6.04859  4.82359
0.544235  -5.55325  5.73419
0.544235  -5.97495  5.29334
0.0693218  -5.69147  5.0422
0.0175505  -5.82915  4.64859
0.0693218  -5.94483  4.74084
0.396281  -5.51723  5.697
0.396281  -5.9362  5.25901
0.0175505  -5.58072  4.94409
0.263557  -5.45922  5.63709
0.544235  -5.29334  5.97495
0.152718  -5.38211  5.55747
0.396281  -5.25901  5.9362
0.0693218  -5.28977  5.46213
0.263557  -5.20371  5.87377
0.0175505  -5.18685  5.35584
0.152718  -5.13021  5.79081
0.0693218  -5.0422  5.69147
0.544235  -4.77439  6.39724
0.0175505  -4.94409  5.58072
0.396281  -4.74342  6.35575
0.544235  -4.53455  6.56943
0.263557  -4.69354  6.28892
0.396281  -4.50514  6.52682
0.152718  -4.62725  6.20009
0.263557  -4.45776  6.45819
0.0693218  -4.54786  6.09372
0.152718  -4.3948  6.36697
0.0175505  -4.45937  5.97515
0.0693218  -4.3194  6.25774
0.544235  -3.91713  6.95526
0.0175505  -4.23536  6.13597
0.396281  -3.89172  6.91015
0.263557  -3.8508  6.83748
0.152718  -3.79641  6.74091
0.0693218  -3.73128  6.62526
0.0175505  -3.65867  6.49635
0.544235  -2.99555  7.39907
0.396281  -2.97612  7.35108
0.263557  -2.94483  7.27378
0.152718  -2.90323  7.17104
0.0693218  -2.85342  7.04801
0.0175505  -2.7979  6.91087
0.544235  -2.02478  7.72138
0.396281  -2.01165  7.6713
0.263557  -1.9905  7.59064
0.152718  -1.96238  7.48342
0.0693218  -1.92872  7.35504
0.0175505  -1.89119  7.21192
0.544235  -1.02077  7.91691
0.396281  -1.01415  7.86557
0.263557  -1.00349  7.78286
0.152718  -0.989314  7.67293
0.0693218  -0.972342  7.54129
0.0175505  -0.953422  7.39455
0.544235  0.962178  7.92425
0.396281  0.955938  7.87285
0.263557  0.945885  7.79007
0.152718  0.932525  7.68004
0.0693218  0.916527  7.54828
0.0175505  0.898693  7.4014
0.544235  1.91033  7.75049
0.396281  1.89794  7.70023
0.263557  1.87798  7.61925
0.152718  1.85145  7.51164
0.0693218  1.81969  7.38277
0.0175505  1.78428  7.23911
0.544235  2.83062  7.46372
0.396281  2.81226  7.41531
0.263557  2.78268  7.33734
0.152718  2.74338  7.2337
0.0693218  2.69632  7.1096
0.0175505  2.64385  6.97126
0.544235  3.70963  7.06811
0.396281  3.68557  7.02227
0.263557  3.64681  6.94842
0.152718  3.5953  6.85028
0.0693218  3.53362  6.73276
0.0175505  3.46487  6.60175
0.544235  4.53455  6.56943
0.396281  4.50514  6.52682
0.544235  4.77439  6.39724
0.263557  4.45776  6.45819
0.396281  4.74342  6.35575
0.152718  4.3948  6.36697
0.263557  4.69354  6.28892
0.0693218  4.3194  6.25774
0.152718  4.62725  6.20009
0.0175505  4.23536  6.13597
0.0693218  4.54786  6.09372
0.544235  5.29334  5.97495
0.0175505  4.45937  5.97515
0.396281  5.25901  5.9362
0.263557  5.20371  5.87377
0.544235  5.55325  5.73419
0.152718  5.13021  5.79081
0.396281  5.51723  5.697
0.0693218  5.0422  5.69147
0.263557  5.45922  5.63709
0.0175505  4.94409  5.58072
0.152718  5.38211  5.55747
0.544235  5.97495  5.29334
0.0693218  5.28977  5.46213
0.396281  5.9362  5.25901
0.0175505  5.18685  5.35584
0.263557  5.87377  5.20371
0.544235  6.24093  4.97698
0.152718  5.79081  5.13021
0.396281  6.20045  4.9447
0.0693218  5.69147  5.0422
0.263557  6.13525  4.8927
0.0175505  5.58072  4.94409
0.152718  6.04859  4.82359
0.544235  6.56943  4.53455
0.0693218  5.94483  4.74084
0.396281  6.52682  4.50514
0.0175505  5.82915  4.64859
0.263557  6.45819  4.45776
0.544235  6.82613  4.13804
0.152718  6.36697  4.3948
0.396281  6.78186  4.1112
0.0693218  6.25774  4.3194
0.263557  6.71055  4.06797
0.0175505  6.13597  4.23536
0.152718  6.61576  4.01051
0.544235  7.06811  3.70963
0.0693218  6.50226  3.94171
0.396281  7.02227  3.68557
0.0175505  6.37574  3.86501
0.263557  6.94842  3.64681
0.152718  6.85028  3.5953
0.544235  7.29925  3.23116
0.0693218  6.73276  3.53362
0.396281  7.25191  3.21021
0.0175505  6.60175  3.46487
0.263557  7.17565  3.17645
0.544235  7.46372  2.83062
0.152718  7.0743  3.13158
0.396281  7.41531  2.81226
0.0693218  6.95294  3.07786
0.263557  7.33734  2.78268
0.0175505  6.81765  3.01797
0.152718  7.2337  2.74338
0.544235  7.65252  2.27123
0.0693218  7.1096  2.69632
0.396281  7.60289  2.2565
0.0175505  6.97126  2.64385
0.263557  7.52294  2.23277
0.544235  7.75049  1.91033
0.152718  7.41668  2.20123
0.396281  7.70023  1.89794
0.0693218  7.28944  2.16347
0.263557  7.61925  1.87798
0.0175505  7.1476  2.12137
0.152718  7.51164  1.85145
0.544235  7.88013  1.274
0.0693218  7.38277  1.81969
0.396281  7.82902  1.26574
0.0175505  7.23911  1.78428
0.544235  7.92425  0.962178
0.263557  7.74669  1.25243
0.396281  7.87285  0.955938
0.152718  7.63728  1.23474
0.263557  7.79007  0.945885
0.0693218  7.50625  1.21355
0.152718  7.68004  0.932525
0.0175505  7.3602  1.18994
0.0693218  7.54828  0.916527
0.544235  7.97835  0.25585
0.0175505  7.4014  0.898693
0.396281  7.9266  0.254191
0.544235  7.98245  0
0.263557  7.84325  0.251518
0.396281  7.93068  0
0.152718  7.73247  0.247965
0.263557  7.84728  0
0.0693218  7.59981  0.243711
0.152718  7.73644  0
0.0175505  7.45193  0.238969
0.0693218  7.60372  0
0.544235  7.94556  -0.766499
0.0175505  7.45576  0
0.396281  7.89403  -0.761528
0.263557  7.81102  -0.75352
0.152718  7.70069  -0.742877
0.0693218  7.56858  -0.730132
0.0175505  7.42131  -0.715925
0.544235  7.78231  -1.77626
0.396281  7.73184  -1.76474
0.263557  7.65053  -1.74618
0.152718  7.54247  -1.72152
0.0693218  7.41308  -1.69199
0.0175505  7.26883  -1.65906
0.544235  7.49128  -2.75686
0.396281  7.44269  -2.73898
0.263557  7.36443  -2.71018
0.152718  7.26041  -2.6719
0.0693218  7.13585  -2.62606
0.0175505  6.997  -2.57496
0.544235  7.07723  -3.69219
0.396281  7.03133  -3.66824
0.263557  6.95739  -3.62967
0.152718  6.85912  -3.5784
0.0693218  6.74145  -3.51701
0.0175505  6.61028  -3.44858
0.544235  6.56943  -4.53455
0.396281  6.52682  -4.50514
0.263557  6.45819  -4.45776
0.152718  6.36697  -4.3948
0.0693218  6.25774  -4.3194
0.0175505  6.13597  -4.23536
0.544235  5.97495  -5.29334
0.396281  5.9362  -5.25901
0.263557  5.87377  -5.20371
0.152718  5.79081  -5.13021
0.0693218  5.69147  -5.0422
0.0175505  5.58072  -4.94409
0.544235  5.29334  -5.97495
0.396281  5.25901  -5.9362
0.263557  5.20371  -5.87377
0.152718  5.13021  -5.79081
0.0693218  5.0422  -5.69147
0.0175505  4.94409  -5.58072
0.544235  4.53455  -6.56943
0.396281  4.50514  -6.52682
0.263557  4.45776  -6.45819
0.152718  4.3948  -6.36697
0.0693218  4.3194  -6.25774
0.0175505  4.23536  -6.13597
0.544235  3.70963  -7.06811
0.396281  3.68557  -7.02227
0.544235  3.46346  -7.19194
0.263557  3.64681  -6.94842
0.396281  3.44099  -7.14529
0.152718  3.5953  -6.85028
0.263557  3.40481  -7.07016
0.0693218  3.53362  -6.73276
0.152718  3.35672  -6.97029
0.0175505  3.46487  -6.60175
0.0693218  3.29913  -6.85071
0.544235  2.83062  -7.46372
0.0175505  3.23494  -6.71741
0.396281  2.81226  -7.41531
0.263557  2.78268  -7.33734
0.544235  2.51534  -7.57579
0.152718  2.74338  -7.2337
0.396281  2.49902  -7.52666
0.0693218  2.69632  -7.1096
0.263557  2.47274  -7.44751
0.0175505  2.64385  -6.97126
0.152718  2.43782  -7.34232
0.544235  1.91033  -7.75049
0.0693218  2.39599  -7.21635
0.396281  1.89794  -7.70023
0.0175505  2.34937  -7.07594
0.263557  1.87798  -7.61925
0.544235  1.52591  -7.83525
0.152718  1.85145  -7.51164
0.396281  1.51602  -7.78443
0.0693218  1.81969  -7.38277
0.263557  1.50008  -7.70257
0.0175505  1.78428  -7.23911
0.152718  1.47889  -7.59378
0.544235  0.962178  -7.92425
0.0693218  1.45352  -7.4635
0.396281  0.955938  -7.87285
0.0175505  1.42523  -7.31827
0.263557  0.945885  -7.79007
0.544235  0.511437  -7.96605
0.152718  0.932525  -7.68004
0.396281  0.50812  -7.91438
0.0693218  0.916527  -7.54828
0.263557  0.502777  -7.83116
0.0175505  0.898693  -7.4014
0.152718  0.495676  -7.72055
0.544235  0  -7.98245
0.0693218  0.487172  -7.5881
0.396281  0  -7.93068
0.0175505  0.477692  -7.44045
0.263557  0  -7.84728
0.152718  0  -7.73644
0.544235  -0.511437  -7.96605
0.0693218  0  -7.60372
0.396281  -0.50812  -7.91438
0.0175505  0  -7.45576
0.263557  -0.502777  -7.83116
0.544235  -0.962178  -7.92425
0.152718  -0.495676  -7.72055
0.396281  -0.955938  -7.87285
0.0693218  -0.487172  -7.5881
0.263557  -0.945885  -7.79007
0.0175505  -0.477692  -7.44045
0.152718  -0.932525  -7.68004
0.544235  -1.52591  -7.83525
0.0693218  -0.916527  -7.54828
0.396281  -1.51602  -7.78443
0.0175505  -0.898693  -7.4014
0.263557  -1.50008  -7.70257
0.544235  -1.91033  -7.75049
0.152718  -1.47889  -7.59378
0.396281  -1.89794  -7.70023
0.0693218  -1.45352  -7.4635
0.263557  -1.87798  -7.61925
0.0175505  -1.42523  -7.31827
0.152718  -1.85145  -7.51164
0.544235  -2.51534  -7.57579
0.0693218  -1.81969  -7.38277
0.396281  -2.49902  -7.52666
0.0175505  -1.78428  -7.23911
0.263557  -2.47274  -7.44751
0.544235  -2.83062  -7.46372
0.152718  -2.43782  -7.34232
0.396281  -2.81226  -7.41531
0.0693218  -2.39599  -7.21635
0.263557  -2.78268  -7.33734
0.0175505  -2.34937  -7.07594
0.152718  -2.74338  -7.2337
0.0693218  -2.69632  -7.1096
0.544235  -3.46346  -7.19194
0.0175505  -2.64385  -6.97126
0.396281  -3.44099  -7.14529
0.544235  -3.70963  -7.06811
0.263557  -3.40481  -7.07016
0.396281  -3.68557  -7.02227
0.152718  -3.35672  -6.97029
0.263557  -3.64681  -6.94842
0.0693218  -3.29913  -6.85071
0.152718  -3.5953  -6.85028
0.0175505  -3.23494  -6.71741
0.0693218  -3.53362  -6.73276
0.544235  -4.3547  -6.69
0.0175505  -3.46487  -6.60175
0.396281  -4.32646  -6.64661
0.263557  -4.28097  -6.57671
0.152718  -4.2205  -6.48382
0.0693218  -4.14809  -6.37259
0.0175505  -4.06738  -6.24859
0.544235  -5.17445  -6.0782
0.396281  -5.14089  -6.03878
0.263557  -5.08683  -5.97528
0.152718  -5.01498  -5.89088
0.0693218  -4.92895  -5.78982
0.0175505  -4.83304  -5.67716
0.544235  -5.90923  -5.36661
0.396281  -5.87091  -5.3318
0.263557  -5.80917  -5.27573
0.152718  -5.72712  -5.20122
0.0693218  -5.62887  -5.11199
0.0175505  -5.51934  -5.01252
0.544235  -6.54698  -4.56689
0.396281  -6.50452  -4.53727
0.263557  -6.43612  -4.48956
0.152718  -6.34522  -4.42615
0.0693218  -6.23636  -4.35021
0.0175505  -6.11501  -4.26557
0.544235  -7.06811  -3.70963
0.396281  -7.02227  -3.68557
0.263557  -6.94842  -3.64681
0.152718  -6.85028  -3.5953
0.0693218  -6.73276  -3.53362
0.0175505  -6.60175  -3.46487
0.544235  -7.46372  -2.83062
0.396281  -7.41531  -2.81226
0.263557  -7.33734  -2.78268
0.152718  -7.2337  -2.74338
0.0693218  -7.1096  -2.69632
0.0175505  -6.97126  -2.64385
0.544235  -7.75049  -1.91033
0.396281  -7.70023  -1.89794
0.263557  -7.61925  -1.87798
0.152718  -7.51164  -1.85145
0.0693218  -7.38277  -1.81969
0.0175505  -7.23911  -1.78428
0.544235  -7.92425  -0.962178
0.396281  -7.87285  -0.955938
0.263557  -7.79007  -0.945885
0.152718  -7.68004  -0.932525
0.0693218  -7.54828  -0.916527
0.0175505  -7.4014  -0.898693
0.544235  -7.98245  0
0.396281  -7.93068  0
0.544235  -7.97835  0.25585
0.263557  -7.84728  0
0.396281  -7.9266  0.254191
0.152718  -7.73644  0
0.263557  -7.84325  0.251518
0.0693218  -7.60372  0
0.152718  -7.73247  0.247965
0.0175505  -7.45576  0
0.0693218  -7.59981  0.243711
0.544235  -7.92425  0.962178
0.0175505  -7.45193  0.238969
0.396281  -7.87285  0.955938
0.544235  -7.88013  1.274
0.263557  -7.79007  0.945885
0.396281  -7.82902  1.26574
0.152718  -7.68004  0.932525
0.263557  -7.74669  1.25243
0.0693218  -7.54828  0.916527
0.152718  -7.63728  1.23474
0.0175505  -7.4014  0.898693
0.544235  -7.75049  1.91033
0.0693218  -7.50625  1.21355
0.396281  -7.70023  1.89794
0.0175505  -7.3602  1.18994
0.263557  -7.61925  1.87798
0.544235  -7.65252  2.27123
0.152718  -7.51164  1.85145
0.396281  -7.60289  2.2565
0.0693218  -7.38277  1.81969
0.263557  -7.52294  2.23277
0.0175505  -7.23911  1.78428
0.152718  -7.41668  2.20123
0.544235  -7.46372  2.83062
0.0693218  -7.28944  2.16347
0.396281  -7.41531  2.81226
0.0175505  -7.1476  2.12137
0.263557  -7.33734  2.78268
0.544235  -7.29925  3.23116
0.152718  -7.2337  2.74338
0.396281  -7.25191  3.21021
0.0693218  -7.1096  2.69632
0.263557  -7.17565  3.17645
0.0175505  -6.97126  2.64385
0.152718  -7.0743  3.13158
0.544235  -7.06811  3.70963
0.0693218  -6.95294  3.07786
0.396281  -7.02227  3.68557
0.0175505  -6.81765  3.01797
0.263557  -6.94842  3.64681
0.152718  -6.85028  3.5953
0.544235  -6.82613  4.13804
0.0693218  -6.73276  3.53362
0.396281  -6.78186  4.1112
0.0175505  -6.60175  3.46487
0.263557  -6.71055  4.06797
0.544235  -6.56943  4.53455
0.152718  -6.61576  4.01051
0.396281  -6.52682  4.50514
0.0693218  -6.50226  3.94171
0.263557  -6.45819  4.45776
0.0175505  -6.37574  3.86501
0.152718  -6.36697  4.3948
0.544235  -6.24093  4.97698
0.0693218  -6.25774  4.3194
0.396281  -6.20045  4.9447
0.0175505  -6.13597  4.23536
116  117  118
116  119  117
120  53  54
120  121  53
122  123  124
122  119  116
122  124  119
125  121  120
125  126  121
127  110  109
127  109  123
127  123  122
128  126  125
128  118  126
128  116  118
129  120  54
130  116  128
131  128  125
131  125  120
131  120  129
132  116  130
132  122  116
133  130  128
133  128  131
134  110  127
134  127  122
134  122  132
135  130  133
136  132  130
136  134  132
136  130  135
137  129  54
137  54  55
138  111  110
138  110  134
138  134  136
139  129  137
139  131  129
140  137  55
141  131  139
141  133  131
142  139  137
142  141  139
142  137  140
143  135  133
143  133  141
144  141  142
145  136  135
145  135  143
146  143  141
146  141  144
147  111  138
147  138  136
147  136  145
148  145  143
148  143  146
149  55  56
149  140  55
150  112  111
150  111  147
150  147  145
150  145  148
151  149  56
151  142  140
151  140  149
152  142  151
152  144  142
152  146  144
152  151  56
153  146  152
154  146  153
154  148  146
155  148  154
155  112  150
155  150  148
156  56  57
157  156  57
157  56  156
158  153  152
158  56  157
158  152  56
159  154  153
159  153  158
160  155  154
160  154  159
161  112  155
161  113  112
161  114  113
161  155  160
162  57  58
163  57  162
163  162  58
163  157  57
164  158  157
164  157  163
164  159  158
165  159  164
166  160  159
166  161  160
166  159  165
167  114  161
167  161  166
168  58  59
169  163  58
169  58  168
169  59  62
169  168  59
170  164  163
170  169  62
170  163  169
170  62  63
171  165  164
171  164  170
171  170  63
171  63  64
171  64  65
172  165  171
172  166  165
172  171  65
173  115  114
173  67  115
173  114  167
173  167  166
173  166  172
173  172  65
173  65  66
173  66  67
61  59  60
62  59  61
174  2  1
174  1  9
175  3  2
175  2  174
176  4  3
176  3  175
177  5  4
177  4  176
178  6  5
178  5  177
179  7  6
179  8  7
179  6  178
179  178  68
179  68  8
180  9  10
180  174  9
181  174  180
181  175  174
182  175  181
182  176  175
183  177  176
183  176  182
184  178  177
184  68  178
184  177  183
185  68  184
185  184  69
185  69  68
186  10  11
186  180  10
187  181  180
187  180  186
188  182  181
188  181  187
189  182  188
189  183  182
190  69  184
190  184  183
190  183  189
191  190  70
191  69  190
191  70  69
192  11  12
192  186  11
193  186  192
193  187  186
194  188  187
194  187  193
195  189  188
195  188  194
196  70  190
196  190  189
196  189  195
196  195  71
197  70  196
197  196  71
197  71  70
198  12  13
198  192  12
199  193  192
199  192  198
200  13  14
200  198  13
201  194  193
201  193  199
202  198  200
202  199  198
203  194  201
203  71  195
203  195  194
204  201  199
204  199  202
205  71  203
206  203  201
206  201  204
207  71  205
207  72  71
208  205  203
208  203  206
209  200  14
210  205  208
210  72  207
210  207  205
211  204  202
211  202  200
211  200  209
212  204  211
213  14  15
213  209  14
214  204  212
214  206  204
215  211  209
215  209  213
216  206  214
216  208  206
217  212  211
217  211  215
218  208  216
218  72  210
218  210  208
218  73  72
219  214  212
219  212  217
220  213  15
220  215  213
221  214  219
221  216  214
222  215  220
223  218  216
223  216  221
223  73  218
224  219  217
224  217  215
224  215  222
225  15  16
225  220  15
226  219  224
227  220  225
227  222  220
228  221  219
228  223  221
228  219  226
229  222  227
229  224  222
230  73  223
230  74  73
230  223  228
231  226  224
231  224  229
232  225  16
232  227  225
233  226  231
233  228  226
234  227  232
235  228  233
235  74  230
235  230  228
236  227  234
236  229  227
237  16  17
237  232  16
237  234  232
238  229  236
238  231  229
238  233  231
239  234  237
240  233  238
240  235  233
241  234  239
241  236  234
242  74  235
242  235  240
242  75  74
243  238  236
243  240  238
243  236  241
244  237  17
245  240  243
246  239  237
246  237  244
247  242  240
247  75  242
247  240  245
248  239  246
248  241  239
249  243  241
249  241  248
250  17  18
250  244  17
251  245  243
251  243  249
252  246  244
252  248  246
252  244  250
253  75  247
253  247  245
253  245  251
253  76  75
254  248  252
255  250  18
256  249  248
256  248  254
257  252  250
257  250  255
258  251  249
258  253  251
258  249  256
259  252  257
259  254  252
260  253  258
260  76  253
261  256  254
261  254  259
262  18  19
262  255  18
262  257  255
263  258  256
263  256  261
264  257  262
265  260  258
265  77  76
265  76  260
265  258  263
266  259  257
266  257  264
267  262  19
268  261  259
268  259  266
268  263  261
269  262  267
269  264  262
270  263  268
271  264  269
271  266  264
272  263  270
272  77  265
272  265  263
273  268  266
273  266  271
274  19  20
274  267  19
275  268  273
275  270  268
276  271  269
276  267  274
276  269  267
277  272  270
277  77  272
277  270  275
277  78  77
278  274  20
279  271  276
280  274  278
280  276  274
281  275  273
281  273  271
281  271  279
282  279  276
282  276  280
283  275  281
284  281  279
284  279  282
285  275  283
285  277  275
285  78  277
286  281  284
286  283  281
287  20  21
287  278  20
287  280  278
288  285  283
288  78  285
288  283  286
288  79  78
289  280  287
290  287  21
291  282  280
291  280  289
292  289  287
292  291  289
292  287  290
293  284  282
293  286  284
293  282  291
294  291  292
295  286  293
296  291  294
296  293  291
297  288  286
297  79  288
297  286  295
298  295  293
298  293  296
299  21  22
299  290  21
300  80  79
300  295  298
300  79  297
300  297  295
301  292  290
301  290  299
301  299  22
302  294  292
302  296  294
302  292  301
302  301  22
303  296  302
304  296  303
304  298  296
305  300  298
305  298  304
305  81  80
305  80  300
306  22  23
307  22  306
307  306  23
308  302  22
308  22  307
309  302  308
309  303  302
310  303  309
310  304  303
311  305  304
311  81  305
311  304  310
312  23  24
313  307  23
313  23  312
313  312  24
314  308  307
314  309  308
314  307  313
315  309  314
316  310  309
316  309  315
317  81  311
317  311  310
317  310  316
317  82  81
318  24  25
319  313  24
319  24  318
320  314  313
320  313  319
321  315  314
321  314  320
322  316  315
322  315  321
323  317  316
323  82  317
323  316  322
323  83  82
324  25  26
324  318  25
325  319  318
325  318  324
326  320  319
326  321  320
326  319  325
327  321  326
328  322  321
328  321  327
329  323  322
329  83  323
329  322  328
329  84  83
330  324  26
330  26  27
330  27  28
331  324  330
331  325  324
332  325  331
332  326  325
333  327  326
333  326  332
334  327  333
334  328  327
335  85  84
335  329  328
335  84  329
335  328  334
335  334  85
336  28  29
336  330  28
337  330  336
337  331  330
337  332  331
338  333  332
338  332  337
339  333  338
340  333  339
340  85  334
340  334  333
341  340  86
341  85  340
341  86  85
342  336  29
343  337  336
343  336  342
344  338  337
344  337  343
345  339  338
345  338  344
346  340  339
346  86  340
346  345  87
346  339  345
347  86  346
347  346  87
347  87  86
348  342  29
348  29  30
349  343  342
349  342  348
350  30  31
350  348  30
351  344  343
351  343  349
352  348  350
352  349  348
352  351  349
353  87  345
353  345  344
353  344  351
354  351  352
355  87  353
356  353  351
356  351  354
357  87  355
357  88  87
358  353  356
358  355  353
358  357  355
359  350  31
360  88  357
360  357  358
361  350  359
361  352  350
361  354  352
362  356  354
362  354  361
363  31  32
363  359  31
364  356  362
365  361  359
365  359  363
366  358  356
366  356  364
367  361  365
367  362  361
368  360  358
368  88  360
368  89  88
368  358  366
369  364  362
369  362  367
370  363  32
370  365  363
371  368  366
371  364  369
371  366  364
372  365  370
373  89  368
373  368  371
374  369  367
374  365  372
374  367  365
375  370  32
375  32  33
376  369  374
377  370  375
377  372  370
378  371  369
378  369  376
379  374  372
379  376  374
379  372  377
380  373  371
380  371  378
380  90  89
380  89  373
381  376  379
382  375  33
382  377  375
383  378  376
383  376  381
383  380  378
384  377  382
385  380  383
385  90  380
386  379  377
386  377  384
387  33  34
387  382  33
388  381  379
388  379  386
389  384  382
389  386  384
389  382  387
390  381  388
390  383  381
391  386  389
392  385  383
392  90  385
392  383  390
392  91  90
393  388  386
393  386  391
394  387  34
395  390  388
395  388  393
396  387  394
396  389  387
396  391  389
397  392  390
397  91  392
397  390  395
398  393  391
398  391  396
399  393  398
400  34  35
400  394  34
401  395  393
401  397  395
401  393  399
402  394  400
402  396  394
403  397  401
403  91  397
403  92  91
404  396  402
404  398  396
405  400  35
406  398  404
406  399  398
407  400  405
407  402  400
408  401  399
408  399  406
409  402  407
409  404  402
410  403  401
410  92  403
410  401  408
411  404  409
411  406  404
412  35  36
412  405  35
413  408  406
413  406  411
414  407  405
414  405  412
415  92  410
415  410  408
415  408  413
415  93  92
416  409  407
416  411  409
416  407  414
417  412  36
418  411  416
419  414  412
419  412  417
419  416  414
420  413  411
420  411  418
421  416  419
422  415  413
422  93  415
422  413  420
423  418  416
423  416  421
424  36  37
424  417  36
425  420  418
425  418  423
425  422  420
426  417  424
426  419  417
427  93  422
427  422  425
427  94  93
428  419  426
428  421  419
428  423  421
429  424  37
430  423  428
431  426  424
431  424  429
432  425  423
432  423  430
433  428  426
433  426  431
434  427  425
434  94  427
434  425  432
435  430  428
435  428  433
436  432  430
436  430  435
437  37  38
437  429  37
438  432  436
438  94  434
438  95  94
438  434  432
439  429  437
439  433  431
439  431  429
440  437  38
441  433  439
442  439  437
442  437  440
442  441  439
443  433  441
443  435  433
444  441  442
444  443  441
445  438  436
445  436  435
445  435  443
446  443  444
446  445  443
447  95  438
447  438  445
448  445  446
448  447  445
449  440  38
449  442  440
449  38  39
450  95  447
450  447  448
450  96  95
451  442  449
451  449  39
452  444  442
452  446  444
452  442  451
452  451  39
453  446  452
454  448  446
454  446  453
455  450  448
455  96  450
455  448  454
455  97  96
456  39  40
457  39  456
457  456  40
458  452  39
458  39  457
459  453  452
459  454  453
459  452  458
460  454  459
461  455  454
461  97  455
461  454  460
462  40  41
463  462  41
463  457  40
463  40  462
464  457  463
464  458  457
465  459  458
465  458  464
466  460  459
466  459  465
467  97  461
467  461  460
467  460  466
467  98  97
468  41  42
469  463  41
469  41  468
470  463  469
470  464  463
471  464  470
471  465  464
471  466  465
472  466  471
473  466  472
473  467  466
473  99  98
473  98  467
474  42  43
474  468  42
475  468  474
475  469  468
476  470  469
476  471  470
476  469  475
477  471  476
478  472  471
478  471  477
479  473  472
479  99  473
479  472  478
479  100  99
480  43  44
480  474  43
480  475  474
481  475  480
482  476  475
482  477  476
482  475  481
483  477  482
484  478  477
484  479  478
484  477  483
485  100  479
485  484  101
485  479  484
485  101  100
486  480  44
486  44  45