VARIABLES = X Y Z
ZONE N =4, E =2, DATAPACKING = POINT, ZONETYPE = FETRIANGLE
5  0  0
5  0  1
5  2  0
5  2  1
2  1  3
2  3  4
VARIABLES = X Y Z
ZONE N =11, E =9, DATAPACKING = POINT, ZONETYPE = FETRIANGLE
5  0  0
5  0  1
0  0  0
0  0  2
4  0  2
4.97493  0  1.22252
4.90097  0  1.43388
4.78183  0  1.62349
4.62349  0  1.78183
4.43388  0  1.90097
4.22252  0  1.97493
5  2  1
5  1  3
5  3  4
7  6  2
9  11  10
9  5  11
8  2  5
8  5  9
8  7  2
VARIABLES = X Y Z
ZONE N =16, E =14, DATAPACKING = POINT, ZONETYPE = FETRIANGLE
5  0  1
4.97493  0  1.22252
4.90097  0  1.43388
4.78183  0  1.62349
4.62349  0  1.78183
4.43388  0  1.90097
4.22252  0  1.97493
4  0  2
4  2  2
5  2  1
4.97493  2  1.22252
4.90097  2  1.43388
4.78183  2  1.62349
4.62349  2  1.78183
4.43388  2  1.90097
4.22252  2  1.97493
11  1  2
11  10  1
12  2  3
12  11  2
13  3  4
13  12  3
14  4  5
14  13  4
15  5  6
15  14  5
16  6  7
16  15  6
9  7  8
9  16  7
VARIABLES = X Y Z
ZONE N =4, E =2, DATAPACKING = POINT, ZONETYPE = FETRIANGLE
0  0  0
0  2  0
5  0  0
5  2  0
4  2  1
4  1  3
VARIABLES = X Y Z
ZONE N =11, E =9, DATAPACKING = POINT, ZONETYPE = FETRIANGLE
5  2  0
5  2  1
0  2  0
0  2  2
4  2  2
4.97493  2  1.22252
4.90097  2  1.43388
4.78183  2  1.62349
4.62349  2  1.78183
4.43388  2  1.90097
4.22252  2  1.97493
5  2  1
5  1  3
5  3  4
7  6  2
9  11  10
9  5  11
8  2  5
8  5  9
8  7  2
VARIABLES = X Y Z
ZONE N =4, E =2, DATAPACKING = POINT, ZONETYPE = FETRIANGLE
0  2  2
4  2  2
0  0  2
4  0  2
2  1  3
2  3  4
VARIABLES = X Y Z
ZONE N =4, E =2, DATAPACKING = POINT, ZONETYPE = FETRIANGLE
0  0  0
0  0  2
0  2  0
0  2  2
2  1  3
2  3  4
