VARIABLES = X Y Z
ZONE N =4, E =2, DATAPACKING = POINT, ZONETYPE = FETRIANGLE
0  0  0
0  0  10
0  10  0
0  10  10
2  1  3
2  3  4
VARIABLES = X Y Z
ZONE N =4, E =2, DATAPACKING = POINT, ZONETYPE = FETRIANGLE
0  0  0
50  0  0
0  0  10
50  0  10
4  2  1
4  1  3
VARIABLES = X Y Z
ZONE N =4, E =2, DATAPACKING = POINT, ZONETYPE = FETRIANGLE
0  10  10
50  10  10
0  0  10
50  0  10
2  1  3
2  3  4
VARIABLES = X Y Z
ZONE N =4, E =2, DATAPACKING = POINT, ZONETYPE = FETRIANGLE
0  10  0
50  10  0
0  10  10
50  10  10
4  2  1
4  1  3
VARIABLES = X Y Z
ZONE N =4, E =2, DATAPACKING = POINT, ZONETYPE = FETRIANGLE
0  10  0
50  10  0
0  0  0
50  0  0
2  1  3
2  3  4
VARIABLES = X Y Z
ZONE N =49, E =49, DATAPACKING = POINT, ZONETYPE = FETRIANGLE
50  4.89859e-15  20
50  -2.78346  19.8054
50  -5.51275  19.2252
50  -8.13473  18.2709
50  -10.5984  16.961
50  -12.8558  15.3209
50  -14.8629  13.3826
50  -16.5808  11.1839
50  -17.9759  8.76742
50  -19.0211  6.18034
50  -19.6962  3.47296
50  -19.9878  0.69799
50  -19.8904  -2.09057
50  -19.4059  -4.83844
50  -18.5437  -7.49213
50  -17.3205  -10
50  -15.7602  -12.3132
50  -13.8932  -14.3868
50  -11.7557  -16.1803
50  -9.38943  -17.659
50  -6.8404  -18.7939
50  -4.15823  -19.563
50  -1.39513  -19.9513
50  1.39513  -19.9513
50  4.15823  -19.563
50  6.8404  -18.7939
50  9.38943  -17.659
50  11.7557  -16.1803
50  13.8932  -14.3868
50  15.7602  -12.3132
50  17.3205  -10
50  18.5437  -7.49213
50  19.4059  -4.83844
50  19.8904  -2.09057
50  19.9878  0.69799
50  19.6962  3.47296
50  19.0211  6.18034
50  17.9759  8.76742
50  16.5808  11.1839
50  14.8629  13.3826
50  12.8558  15.3209
50  10.5984  16.961
50  8.13473  18.2709
50  5.51275  19.2252
50  2.78346  19.8054
50  0  10
50  0  0
50  10  10
50  10  0
49  27  28
49  28  29
49  29  30
49  30  31
49  31  32
49  32  33
49  33  34
49  34  35
49  35  36
49  36  37
47  18  19
47  19  20
47  20  21
47  21  22
47  22  23
47  23  24
47  24  25
47  25  26
47  26  27
47  27  49
48  37  38
48  38  39
48  39  40
48  49  37
41  48  40
17  18  47
42  48  41
16  17  47
43  46  48
43  48  42
15  16  47
44  46  43
14  15  47
45  46  44
13  14  47
1  46  45
12  13  47
2  46  1
11  12  47
3  46  2
10  11  47
4  46  3
9  10  47
9  47  46
5  46  4
8  9  46
6  46  5
7  8  46
7  46  6
VARIABLES = X Y Z
ZONE N =92, E =90, DATAPACKING = POINT, ZONETYPE = FETRIANGLE
150  4.89859e-15  20
150  -2.78346  19.8054
150  -5.51275  19.2252
150  -8.13473  18.2709
150  -10.5984  16.961
150  -12.8558  15.3209
150  -14.8629  13.3826
150  -16.5808  11.1839
150  -17.9759  8.76742
150  -19.0211  6.18034
150  -19.6962  3.47296
150  -19.9878  0.69799
150  -19.8904  -2.09057
150  -19.4059  -4.83844
150  -18.5437  -7.49213
150  -17.3205  -10
150  -15.7602  -12.3132
150  -13.8932  -14.3868
150  -11.7557  -16.1803
150  -9.38943  -17.659
150  -6.8404  -18.7939
150  -4.15823  -19.563
150  -1.39513  -19.9513
150  1.39513  -19.9513
150  4.15823  -19.563
150  6.8404  -18.7939
150  9.38943  -17.659
150  11.7557  -16.1803
150  13.8932  -14.3868
150  15.7602  -12.3132
150  17.3205  -10
150  18.5437  -7.49213
150  19.4059  -4.83844
150  19.8904  -2.09057
150  19.9878  0.69799
150  19.6962  3.47296
150  19.0211  6.18034
150  17.9759  8.76742
150  16.5808  11.1839
150  14.8629  13.3826
150  12.8558  15.3209
150  10.5984  16.961
150  8.13473  18.2709
150  5.51275  19.2252
150  2.78346  19.8054
150  4.89859e-15  20
50  4.89859e-15  20
50  -2.78346  19.8054
50  -5.51275  19.2252
50  -8.13473  18.2709
50  -10.5984  16.961
50  -12.8558  15.3209
50  -14.8629  13.3826
50  -16.5808  11.1839
50  -17.9759  8.76742
50  -19.0211  6.18034
50  -19.6962  3.47296
50  -19.9878  0.69799
50  -19.8904  -2.09057
50  -19.4059  -4.83844
50  -18.5437  -7.49213
50  -17.3205  -10
50  -15.7602  -12.3132
50  -13.8932  -14.3868
50  -11.7557  -16.1803
50  -9.38943  -17.659
50  -6.8404  -18.7939
50  -4.15823  -19.563
50  -1.39513  -19.9513
50  1.39513  -19.9513
50  4.15823  -19.563
50  6.8404  -18.7939
50  9.38943  -17.659
50  11.7557  -16.1803
50  13.8932  -14.3868
50  15.7602  -12.3132
50  17.3205  -10
50  18.5437  -7.49213
50  19.4059  -4.83844
50  19.8904  -2.09057
50  19.9878  0.69799
50  19.6962  3.47296
50  19.0211  6.18034
50  17.9759  8.76742
50  16.5808  11.1839
50  14.8629  13.3826
50  12.8558  15.3209
50  10.5984  16.961
50  8.13473  18.2709
50  5.51275  19.2252
50  2.78346  19.8054
50  4.89859e-15  20
1  47  48
2  48  49
2  1  48
3  2  49
4  3  49
4  49  50
5  4  50
5  50  51
6  5  51
6  51  52
7  6  52
7  52  53
8  7  53
8  53  54
9  8  54
9  54  55
10  9  55
10  55  56
10  56  57
11  10  57
12  11  57
12  57  58
13  12  58
13  58  59
14  13  59
14  59  60
14  60  61
15  14  61
16  15  61
16  61  62
17  16  62
17  62  63
18  63  64
18  17  63
19  64  65
19  18  64
20  65  66
20  19  65
21  66  67
21  20  66
22  67  68
22  21  67
23  68  69
23  22  68
24  69  70
24  23  69
25  70  71
25  24  70
26  71  72
26  25  71
27  72  73
27  26  72
28  27  73
28  73  74
29  28  74
29  74  75
30  29  75
30  75  76
31  30  76
31  76  77
32  31  77
32  77  78
33  32  78
33  78  79
33  79  80
34  33  80
35  34  80
35  80  81
36  35  81
36  81  82
37  36  82
37  82  83
38  37  83
38  83  84
39  38  84
39  84  85
40  39  85
40  85  86
40  86  87
41  40  87
42  41  87
42  87  88
43  42  88
43  88  89
43  89  90
44  43  90
45  44  90
45  90  91
46  45  91
46  91  92
VARIABLES = X Y Z
ZONE N =45, E =43, DATAPACKING = POINT, ZONETYPE = FETRIANGLE
150  4.89859e-15  20
150  -2.78346  19.8054
150  -5.51275  19.2252
150  -8.13473  18.2709
150  -10.5984  16.961
150  -12.8558  15.3209
150  -14.8629  13.3826
150  -16.5808  11.1839
150  -17.9759  8.76742
150  -19.0211  6.18034
150  -19.6962  3.47296
150  -19.9878  0.69799
150  -19.8904  -2.09057
150  -19.4059  -4.83844
150  -18.5437  -7.49213
150  -17.3205  -10
150  -15.7602  -12.3132
150  -13.8932  -14.3868
150  -11.7557  -16.1803
150  -9.38943  -17.659
150  -6.8404  -18.7939
150  -4.15823  -19.563
150  -1.39513  -19.9513
150  1.39513  -19.9513
150  4.15823  -19.563
150  6.8404  -18.7939
150  9.38943  -17.659
150  11.7557  -16.1803
150  13.8932  -14.3868
150  15.7602  -12.3132
150  17.3205  -10
150  18.5437  -7.49213
150  19.4059  -4.83844
150  19.8904  -2.09057
150  19.9878  0.69799
150  19.6962  3.47296
150  19.0211  6.18034
150  17.9759  8.76742
150  16.5808  11.1839
150  14.8629  13.3826
150  12.8558  15.3209
150  10.5984  16.961
150  8.13473  18.2709
150  5.51275  19.2252
150  2.78346  19.8054
31  29  30
26  27  28
35  31  32
35  32  33
35  33  34
23  24  25
23  25  26
23  28  29
23  26  28
23  29  31
36  31  35
38  36  37
39  36  38
19  20  21
19  21  22
17  18  19
17  22  23
17  19  22
15  16  17
15  23  31
15  17  23
44  42  43
14  15  31
14  31  36
45  42  44
45  40  41
45  41  42
1  40  45
1  39  40
1  36  39
12  13  14
2  36  1
11  14  36
11  12  14
6  3  4
6  4  5
7  2  3
7  8  9
7  9  10
7  10  11
7  36  2
7  11  36
7  3  6
