VARIABLES = X Y Z
ZONE N =6, E =4, DATAPACKING = POINT, ZONETYPE = FETRIANGLE
-50  -50  0
-50  50  0
50  -50  0
50  50  0
50  0  0
25  0  0
6  2  1
6  1  3
4  2  6
3  4  6
