VARIABLES = X Y Z
ZONE T = Curve
1  2  3
1.0054  2.1146  3.2328
1.0216  2.2184  3.4512
1.0486  2.3114  3.6552
1.0864  2.3936  3.8448
1.135  2.465  4.02
1.1944  2.5256  4.1808
1.2646  2.5754  4.3272
1.3456  2.6144  4.4592
1.4374  2.6426  4.5768
1.54  2.66  4.68
1.6534  2.6666  4.7688
1.7776  2.6624  4.8432
1.9126  2.6474  4.9032
2.0584  2.6216  4.9488
2.215  2.585  4.98
2.3824  2.5376  4.9968
2.5592  2.4802  4.9996
2.7272  2.4232  4.9936
2.8808  2.3698  4.9804
3.02  2.32  4.96
3.1448  2.2738  4.9324
3.2552  2.2312  4.8976
3.3512  2.1922  4.8556
3.4328  2.1568  4.8064
3.5  2.125  4.75
3.5528  2.0968  4.6864
3.5912  2.0722  4.6156
3.6152  2.0512  4.5376
3.6248  2.0338  4.4524
3.62  2.02  4.36
3.6008  2.0098  4.2604
3.5672  2.0032  4.1536
3.5192  2.0002  4.0396
3.4608  2.0008  3.92288
3.405  2.005  3.818
3.3528  2.0128  3.72608
3.3042  2.0242  3.64712
3.2592  2.0392  3.58112
3.2178  2.0578  3.52808
3.18  2.08  3.488
3.1458  2.1058  3.46088
3.1152  2.1352  3.44672
3.0882  2.1682  3.44552
3.0648  2.2048  3.45728
3.045  2.245  3.482
3.0288  2.2888  3.51968
3.0162  2.3362  3.57032
3.0072  2.3872  3.63392
3.0018  2.4418  3.71048
3  2.5  3.8
