VARIABLES = X Y Z
ZONE N =695, E =1313, DATAPACKING = POINT, ZONETYPE = FETRIANGLE
1  2  -2
1.65838  2  -1.94545
2.2988  2  -1.78327
2.90379  2  -1.5179
3.45685  2  -1.15656
3.9429  2  -0.709126
4.34867  2  -0.187793
4.66309  2  0.393218
4.8776  2  1.01806
4.98634  2  1.66968
4.98634  2  2.33032
4.8776  2  2.98194
4.66309  2  3.60678
4.34867  2  4.18779
3.9429  2  4.70913
3.45685  2  5.15656
2.90379  2  5.5179
2.2988  2  5.78327
1.65838  2  5.94545
1  2  6
1  2  6
1  2  -2
1.65838  2  -1.94545
2.2988  2  -1.78327
2.90379  2  -1.5179
3.45685  2  -1.15656
3.9429  2  -0.709126
4.34867  2  -0.187793
4.66309  2  0.393218
4.8776  2  1.01806
4.98634  2  1.66968
4.98634  2  2.33032
4.8776  2  2.98194
4.66309  2  3.60678
4.34867  2  4.18779
3.9429  2  4.70913
3.45685  2  5.15656
2.90379  2  5.5179
2.2988  2  5.78327
1.65838  2  5.94545
0.72093  2.65116  5.93676
0.888324  2.65116  5.94506
1.0559  2.65116  5.94625
1.22338  2.65116  5.94032
1.39046  2.65116  5.92728
1.59827  2.65116  5.90103
1.8044  2.65116  5.8638
2.00827  2.65116  5.81567
2.2093  2.65116  5.7568
0.72093  5.99025  2
0.72093  5.9304  2.68852
0.72093  5.75265  3.35638
0.72093  5.46232  3.98355
0.72093  5.06813  4.55121
0.72093  4.83567  4.80733
0.72093  4.5819  5.04235
0.72093  4.30874  5.25451
0.72093  4.01822  5.44222
0.72093  3.71255  5.60407
0.72093  3.394  5.73883
0.72093  3.02739  5.85572
1  6  2
2  5.87298  2
1.67063  5.94338  2
1.33651  5.98582  2
2.2093  5.81282  2
2.2093  5.75298  2.67288
2.2093  5.57532  3.32463
2.2093  5.28544  3.9348
2.2093  4.89243  4.48424
2.2093  4.66099  4.7307
2.2093  4.40862  4.95569
2.2093  4.13732  5.15744
2.2093  3.84921  5.33437
2.2093  3.56405  5.47726
2.2093  3.26794  5.59582
2.2093  2.96295  5.68922
1.65601  2.05583  -1.94545
1.63713  2.1659  -1.94545
1.59993  2.27119  -1.94545
1.54547  2.36868  -1.94545
2.28012  2.2195  -1.78327
1.47532  2.45556  -1.94545
2.22461  2.43268  -1.78327
1.39149  2.52933  -1.94545
2.13387  2.63342  -1.78327
2.89693  2.16145  -1.5179
1.2964  2.58788  -1.94545
2.01051  2.81593  -1.78327
2.84236  2.47971  -1.5179
1.19279  2.62952  -1.94545
1.85808  2.97497  -1.78327
2.73479  2.78417  -1.5179
1.08363  2.65305  -1.94545
1.68097  3.10596  -1.78327
2.57731  3.06607  -1.5179
0.972058  2.65779  -1.94545
3.42151  2.41521  -1.15656
1.48427  3.20514  -1.78327
2.37445  3.31731  -1.5179
0.861293  2.6436  -1.94545
3.31651  2.81847  -1.15656
1.27363  3.26965  -1.78327
2.13206  3.53064  -1.5179
0.754519  2.6109  -1.94545
3.14487  3.19819  -1.15656
1.05512  3.29763  -1.78327
3.93229  2.24957  -0.709126
1.85709  3.69994  -1.5179
0.654807  2.56063  -1.94545
2.91152  3.54344  -1.15656
0.83503  3.28828  -1.78327
3.84794  2.74155  -0.709126
1.55747  3.82034  -1.5179
0.565026  2.49423  -1.94545
2.62318  3.84429  -1.15656
0.619682  3.24187  -1.78327
3.68165  3.21218  -0.709126
1.24182  3.88837  -1.5179
0.487758  2.41361  -1.94545
2.28814  4.09208  -1.15656
0.415276  3.15973  -1.78327
3.43822  3.64795  -0.709126
0.919201  3.90207  -1.5179
0.425226  2.32109  -1.94545
4.3005  2.56593  -0.187793
1.91605  4.27968  -1.15656
0.227692  3.04423  -1.78327
3.12464  4.0363  -0.709126
0.598911  3.86106  -1.5179
0.37923  2.21933  -1.94545
4.15738  3.11557  -0.187793
1.51761  4.40171  -1.15656
0.062325  2.89869  -1.78327
2.74994  4.36608  -0.709126
0.29016  3.76651  -1.5179
0.351092  2.11127  -1.94545
3.92343  3.63313  -0.187793
1.10427  4.45464  -1.15656
-0.0760666  2.72729  -1.78327
4.6499  2.31065  0.393218
2.3249  4.62779  -0.709126
0.00182926  3.62113  -1.5179
0.341622  2  -1.94545
3.60538  4.1037  -0.187793
0.687936  4.43695  -1.15656
-0.183502  2.53498  -1.78327
4.5449  2.92302  0.393218
1.86175  4.8139  -0.709126
-0.257786  3.42912  -1.5179
0.351092  1.88873  -1.94545
3.21238  4.51375  -0.187793
0.280578  4.34916  -1.15656
-0.256889  2.32727  -1.78327
4.33791  3.50883  0.393218
1.3738  4.91906  -0.709126
-0.481216  3.196  -1.5179
0.37923  1.78067  -1.94545
2.75573  4.85149  -0.187793
-0.106083  4.19379  -1.15656
-0.294119  2.11015  -1.78327
4.03491  4.05124  0.393218
0.8751  4.94024  -0.709126
-0.662035  2.92847  -1.5179
0.425226  1.67891  -1.94545
4.82183  2.65532  1.01806
2.24857  5.10719  -0.187793
-0.460925  3.9753  -1.15656
-0.294119  1.88985  -1.78327
3.64459  4.53464  0.393218
0.379993  4.87684  -0.709126
-0.79504  2.63423  -1.5179
0.487758  1.58639  -1.94545
4.6561  3.29178  1.01806
1.70549  5.27351  -0.187793
-0.773738  3.69999  -1.15656
-0.256889  1.67273  -1.78327
3.1782  4.94512  0.393218
-0.0972777  4.73068  -0.709126
-0.876405  2.32174  -1.5179
0.565026  1.50577  -1.94545
4.3852  3.89109  1.01806
1.14212  5.34565  -0.187793
-1.03552  3.37577  -1.15656
-0.183502  1.46502  -1.78327
4.97198  2.33807  1.66968
2.64914  5.27087  0.393218
-0.542982  4.50596  -0.709126
-0.90379  2  -1.5179
0.654807  1.43937  -1.94545
4.01691  4.43599  1.01806
0.57466  5.32154  -0.187793
-1.23875  3.01198  -1.15656
-0.0760666  1.27271  -1.78327
4.85771  3.00447  1.66968
2.07264  5.50253  0.393218
-0.944297  4.20915  -0.709126
-0.876405  1.67826  -1.5179
0.754519  1.3891  -1.94545
3.56183  4.91081  1.01806
0.0194344  5.20188  -0.187793
-1.37758  2.61907  -1.15656
0.062325  1.10131  -1.78327
4.63246  3.64198  1.66968
1.46528  5.63342  0.393218
-1.28968  3.84879  -0.709126
-0.79504  1.36577  -1.5179
0.861293  1.3564  -1.94545
3.03305  5.30189  1.01806
-0.507582  4.99011  -0.187793
-1.448  2.20836  -1.15656
0.227692  0.95577  -1.78327
4.30272  4.23225  1.66968
0.844534  5.65979  0.393218
-1.56919  3.43524  -0.709126
-0.662035  1.07153  -1.5179
4.929  2.67369  2.33032
0.972058  1.34221  -1.94545
2.44579  5.59798  1.01806
-0.991228  4.69232  -0.187793
-1.448  1.79164  -1.15656
0.415276  0.84027  -1.78327
3.87796  4.7583  1.66968
0.228262  5.58088  0.393218
-1.77479  2.9804  -0.709126
-0.481216  0.804001  -1.5179
4.75863  3.32801  2.33032
1.08363  1.34695  -1.94545
1.81693  5.79057  1.01806
-1.41759  4.31707  -0.187793
-1.37758  1.38093  -1.15656
0.619682  0.758133  -1.78327
3.37041  5.205  1.66968
-0.365808  5.39894  0.393218
-1.90056  2.49735  -0.709126
-0.257786  0.570878  -1.5179
4.48013  3.94412  2.33032
1.19279  1.37048  -1.94545
1.16457  5.87411  1.01806
-1.7744  3.87517  -0.187793
-1.23875  0.98802  -1.15656
4.86363  2.32884  2.98194
0.83503  0.711722  -1.78327
2.79466  5.5595  1.66968
-0.920587  5.11923  0.393218
-1.9429  2  -0.709126
0.00182926  0.378868  -1.5179
4.10151  4.5043  2.33032
1.2964  1.41212  -1.94545
0.507476  5.84619  1.01806
-2.0514  3.37932  -0.187793
-1.03552  0.624225  -1.15656
4.75248  2.97707  2.98194
1.05512  0.702372  -1.78327
2.16729  5.8116  1.66968
-1.42011  4.74978  0.393218
-1.90056  1.50265  -0.709126
0.29016  0.233495  -1.5179
3.63367  4.99243  2.33032
1.39149  1.47067  -1.94545
-0.13545  5.70763  1.01806
-2.24061  2.84379  -0.187793
-0.773738  0.300009  -1.15656
4.53338  3.59719  2.98194
1.27363  0.730353  -1.78327
1.50634  5.95405  1.66968
-1.85002  4.30123  0.393218
-1.77479  1.0196  -0.709126
0.598911  0.138941  -1.5179
3.09007  5.39448  2.33032
1.47532  1.54444  -1.94545
-0.745711  5.46241  1.01806
-2.3366  2.28399  -0.187793
-0.460925  0.024699  -1.15656
4.21263  4.17136  2.98194
1.48427  0.79486  -1.78327
0.830815  5.98275  1.66968
-2.19793  3.78647  0.393218
-1.56919  0.564765  -0.709126
4.6104  2.61907  3.60678
0.919201  0.0979258  -1.5179
1.54547  1.63132  -1.94545
-1.30575  5.11758  1.01806
-2.3366  1.71601  -0.187793
-0.106083  -0.193786  -1.15656
3.79946  4.68306  2.98194
1.68097  0.894036  -1.78327
0.160161  5.89687  1.66968
-2.45385  3.22032  0.393218
-1.28968  0.151214  -0.709126
4.45385  3.22032  3.60678
1.24182  0.11163  -1.5179
1.59993  1.72881  -1.94545
-1.79946  4.68306  1.01806
-2.24061  1.15621  -0.187793
0.280578  -0.349159  -1.15656
3.30575  5.11758  2.98194
1.85808  1.02503  -1.78327
-0.486332  5.69888  1.66968
-2.6104  2.61907  0.393218
-0.944297  -0.20915  -0.709126
4.19793  3.78647  3.60678
1.55747  0.17966  -1.5179
1.63713  1.8341  -1.94545
-2.21263  4.17136  1.01806
-2.0514  0.62068  -0.187793
4.3366  2.28399  4.18779
0.687936  -0.436951  -1.15656
2.74571  5.46241  2.98194
2.01051  1.18407  -1.78327
-1.09007  5.39448  1.66968
-2.66309  2  0.393218
-0.542982  -0.505961  -0.709126
3.85002  4.30123  3.60678
1.85709  0.300057  -1.5179
1.65601  1.94417  -1.94545
-2.53338  3.59719  1.01806
-1.7744  0.124832  -0.187793
4.24061  2.84379  4.18779
1.10427  -0.454637  -1.15656
2.13387  1.36658  -1.78327
-1.63367  4.99243  1.66968
-2.6104  1.38093  0.393218
-0.0972777  -0.730681  -0.709126
3.42011  4.74978  3.60678
2.13206  0.469359  -1.5179
-0.167291  5.8116  2.33032
-2.75248  2.97707  1.01806
-1.41759  -0.317072  -0.187793
4.0514  3.37932  4.18779
1.51761  -0.401707  -1.15656
2.22461  1.56732  -1.78327
-2.10151  4.5043  1.66968
-2.45385  0.779678  0.393218
0.379993  -0.876843  -0.709126
2.92059  5.11923  3.60678
2.37445  0.682694  -1.5179
-0.794664  5.5595  2.33032
-2.86363  2.32884  1.01806
-0.991228  -0.692318  -0.187793
3.7744  3.87517  4.18779
1.91605  -0.279685  -1.15656
2.28012  1.7805  -1.78327
-2.48013  3.94412  1.66968
-2.19793  0.213528  0.393218
3.90056  2.49735  4.70913
0.8751  -0.940244  -0.709126
2.57731  0.933926  -1.5179
-1.37041  5.205  2.33032
-2.86363  1.67116  1.01806
-0.507582  -0.99011  -0.187793
3.41759  4.31707  4.18779
2.28814  -0.0920801  -1.15656
0.18307  5.79057  2.98194
-2.75863  3.32801  1.66968
-1.85002  -0.301228  0.393218
3.77479  2.9804  4.70913
1.3738  -0.919059  -0.709126
2.73479  1.21583  -1.5179
-1.87796  4.7583  2.33032
-2.75248  1.02293  1.01806
0.0194344  -1.20188  -0.187793
2.99123  4.69232  4.18779
2.62318  0.15571  -1.15656
-0.445789  5.59798  2.98194
-2.929  2.67369  1.66968
-1.42011  -0.749783  0.393218
3.56919  3.43524  4.70913
1.86175  -0.813899  -0.709126
2.84236  1.52029  -1.5179
-2.30272  4.23225  2.33032
-2.53338  0.402811  1.01806
3.448  2.20836  5.15656
0.57466  -1.32154  -0.187793
2.91152  0.456557  -1.15656
-1.03305  5.30189  2.98194
-2.98634  2  1.66968
-0.920587  -1.11923  0.393218
3.28968  3.84879  4.70913
2.3249  -0.627788  -0.709126
2.89693  1.83855  -1.5179
-2.63246  3.64198  2.33032
-2.21263  -0.171359  1.01806
3.37758  2.61907  5.15656
1.14212  -1.34565  -0.187793
3.14487  0.801806  -1.15656
-1.56183  4.91081  2.98194
-2.929  1.32631  1.66968
-0.365808  -1.39894  0.393218
2.9443  4.20915  4.70913
2.74994  -0.36608  -0.709126
-0.0726371  5.50253  3.60678
-2.85771  3.00447  2.33032
-1.79946  -0.683063  1.01806
3.23875  3.01198  5.15656
1.70549  -1.27351  -0.187793
3.31651  1.18153  -1.15656
-2.01691  4.43599  2.98194
-2.75863  0.671992  1.66968
0.228262  -1.58088  0.393218
2.54298  4.50596  4.70913
3.12464  -0.0363039  -0.709126
-0.649138  5.27087  3.60678
-2.97198  2.33807  2.33032
-1.30575  -1.11758  1.01806
3.03552  3.37577  5.15656
2.24857  -1.10719  -0.187793
3.42151  1.58479  -1.15656
-2.3852  3.89109  2.98194
-2.48013  0.0558831  1.66968
2.87641  2.32174  5.5179
0.844534  -1.65979  0.393218
3.43822  0.352053  -0.709126
-1.1782  4.94512  3.60678
-2.97198  1.66193  2.33032
-0.745711  -1.46241  1.01806
2.77374  3.69999  5.15656
2.75573  -0.851487  -0.187793
0.294506  5.27351  4.18779
-2.6561  3.29178  2.98194
-2.10151  -0.504297  1.66968
2.79504  2.63423  5.5179
1.46528  -1.63342  0.393218
3.68165  0.787818  -0.709126
-1.64459  4.53464  3.60678
-2.85771  0.99553  2.33032
-0.13545  -1.70763  1.01806
2.46093  3.9753  5.15656
3.21238  -0.513751  -0.187793
-0.248572  5.10719  4.18779
-2.82183  2.65532  2.98194
-1.63367  -0.992434  1.66968
2.66204  2.92847  5.5179
2.07264  -1.50253  0.393218
3.84794  1.25845  -0.709126
-2.03491  4.05124  3.60678
-2.63246  0.358022  2.33032
2.29412  2.11015  5.78327
0.507476  -1.84619  1.01806
3.60538  -0.103699  -0.187793
-0.75573  4.85149  4.18779
-2.8776  2  2.98194
-1.09007  -1.39448  1.66968
2.48122  3.196  5.5179
2.64914  -1.27087  0.393218
3.93229  1.75043  -0.709126
-2.33791  3.50883  3.60678
-2.30272  -0.232249  2.33032
2.25689  2.32727  5.78327
1.16457  -1.87411  1.01806
3.92343  0.366873  -0.187793
-1.21238  4.51375  4.18779
-2.82183  1.34468  2.98194
-0.486332  -1.69888  1.66968
3.1782  -0.945117  0.393218
0.138253  4.8139  4.70913
-2.5449  2.92302  3.60678
-1.87796  -0.758302  2.33032
2.1835  2.53498  5.78327
1.81693  -1.79057  1.01806
4.15738  0.884426  -0.187793
-1.60538  4.1037  4.18779
-2.6561  0.708217  2.98194
0.160161  -1.89687  1.66968
3.64459  -0.534637  0.393218
-0.324903  4.62779  4.70913
-2.6499  2.31065  3.60678
-1.37041  -1.205  2.33032
2.44579  -1.59798  1.01806
4.3005  1.43407  -0.187793
-1.92343  3.63313  4.18779
-2.3852  0.108914  2.98194
1.64891  2.11127  5.94545
0.830815  -1.98275  1.66968
4.03491  -0.0512399  0.393218
-0.749943  4.36608  4.70913
-2.6499  1.68935  3.60678
-0.794664  -1.5595  2.33032
3.03305  -1.30189  1.01806
0.482392  4.40171  5.15656
-2.15738  3.11557  4.18779
-2.01691  -0.435987  2.98194
1.62077  2.21933  5.94545
1.50634  -1.95405  1.66968
4.33791  0.491167  0.393218
-1.12464  4.0363  4.70913
-2.5449  1.07698  3.60678
-0.167291  -1.8116  2.33032
3.56183  -0.910808  1.01806
0.0839472  4.27968  5.15656
-2.3005  2.56593  4.18779
-1.56183  -0.910808  2.98194
1.57477  2.32109  5.94545
2.16729  -1.8116  1.66968
4.5449  1.07698  0.393218
-1.43822  3.64795  4.70913
-2.33791  0.491167  3.60678
0.493664  -1.95405  2.33032
4.01691  -0.435987  1.01806
-0.288145  4.09208  5.15656
-2.34867  2  4.18779
-1.03305  -1.30189  2.98194
1.51224  2.41361  5.94545
2.79466  -1.5595  1.66968
4.6499  1.68935  0.393218
-1.68165  3.21218  4.70913
-2.03491  -0.0512399  3.60678
1.16918  -1.98275  2.33032
4.3852  0.108914  1.01806
-0.623179  3.84429  5.15656
-2.3005  1.43407  4.18779
-0.445789  -1.59798  2.98194
1.43497  2.49423  5.94545
3.37041  -1.205  1.66968
0.442527  3.82034  5.5179
-1.84794  2.74155  4.70913
-1.64459  -0.534637  3.60678
1.83984  -1.89687  2.33032
4.6561  0.708217  1.01806
-0.911518  3.54344  5.15656
-2.15738  0.884426  4.18779
0.18307  -1.79057  2.98194
1.34519  2.56063  5.94545
3.87796  -0.758302  1.66968
0.142907  3.69994  5.5179
-1.93229  2.24957  4.70913
-1.1782  -0.945117  3.60678
2.48633  -1.69888  2.33032
4.82183  1.34468  1.01806
-1.14487  3.19819  5.15656
-1.92343  0.366873  4.18779
0.83543  -1.87411  2.98194
1.24548  2.6109  5.94545
4.30272  -0.232249  1.66968
-0.132056  3.53064  5.5179
-1.93229  1.75043  4.70913
-0.649138  -1.27087  3.60678
3.09007  -1.39448  2.33032
-1.31651  2.81847  5.15656
-1.60538  -0.103699  4.18779
1.49252  -1.84619  2.98194
1.13871  2.6436  5.94545
4.63246  0.358022  1.66968
-0.374452  3.31731  5.5179
-1.84794  1.25845  4.70913
-0.0726371  -1.50253  3.60678
3.63367  -0.992434  2.33032
0.515735  3.20514  5.78327
-1.42151  2.41521  5.15656
-1.21238  -0.513751  4.18779
2.13545  -1.70763  2.98194
4.85771  0.99553  1.66968
-0.577308  3.06607  5.5179
-1.68165  0.787818  4.70913
0.534722  -1.63342  3.60678
4.10151  -0.504297  2.33032
0.319031  3.10596  5.78327
-1.45685  2  5.15656
-0.75573  -0.851487  4.18779
2.74571  -1.46241  2.98194
4.97198  1.66193  1.66968
-0.734787  2.78417  5.5179
-1.43822  0.352053  4.70913
1.15547  -1.65979  3.60678
4.48013  0.0558831  2.33032
0.141917  2.97497  5.78327
-1.42151  1.58479  5.15656
-0.248572  -1.10719  4.18779
3.30575  -1.11758  2.98194
0.807212  2.62952  5.94545
-0.84236  2.47971  5.5179
-1.12464  -0.0363039  4.70913
1.77174  -1.58088  3.60678
4.75863  0.671992  2.33032
-0.0105112  2.81593  5.78327
-1.31651  1.18153  5.15656
0.294506  -1.27351  4.18779
3.79946  -0.683063  2.98194
0.703596  2.58788  5.94545
-0.896931  2.16145  5.5179
-0.749943  -0.36608  4.70913
2.36581  -1.39894  3.60678
4.929  1.32631  2.33032
-0.133869  2.63342  5.78327
-1.14487  0.801806  5.15656
0.857879  -1.34565  4.18779
4.21263  -0.171359  2.98194
0.608506  2.52933  5.94545
-0.896931  1.83855  5.5179
-0.324903  -0.627788  4.70913
2.92059  -1.11923  3.60678
-0.224607  2.43268  5.78327
-0.911518  0.456557  5.15656
1.42534  -1.32154  4.18779
4.53338  0.402811  2.98194
0.52468  2.45556  5.94545
-0.84236  1.52029  5.5179
0.138253  -0.813899  4.70913
3.42011  -0.749783  3.60678
-0.280116  2.2195  5.78327
-0.623179  0.15571  5.15656
1.98057  -1.20188  4.18779
4.75248  1.02293  2.98194
0.454527  2.36868  5.94545
-0.734787  1.21583  5.5179
0.6262  -0.919059  4.70913
3.85002  -0.301228  3.60678
-0.298798  2  5.78327
-0.288145  -0.0920801  5.15656
2.50758  -0.99011  4.18779
4.86363  1.67116  2.98194
0.400067  2.27119  5.94545
-0.577308  0.933926  5.5179
1.1249  -0.940244  4.70913
4.19793  0.213528  3.60678
-0.280116  1.7805  5.78327
0.0839472  -0.279685  5.15656
2.99123  -0.692318  4.18779
0.362866  2.1659  5.94545
-0.374452  0.682694  5.5179
1.62001  -0.876843  4.70913
4.45385  0.779678  3.60678
-0.224607  1.56732  5.78327
0.482392  -0.401707  5.15656
3.41759  -0.317072  4.18779
0.343993  2.05583  5.94545
-0.132056  0.469359  5.5179
2.09728  -0.730681  4.70913
4.6104  1.38093  3.60678
-0.133869  1.36658  5.78327
0.895728  -0.454637  5.15656
3.7744  0.124832  4.18779
0.343993  1.94417  5.94545
0.142907  0.300057  5.5179
2.54298  -0.505961  4.70913
-0.0105112  1.18407  5.78327
1.31206  -0.436951  5.15656
4.0514  0.62068  4.18779
0.362866  1.8341  5.94545
0.442527  0.17966  5.5179
2.9443  -0.20915  4.70913
0.141917  1.02503  5.78327
1.71942  -0.349159  5.15656
4.24061  1.15621  4.18779
0.400067  1.72881  5.94545
0.758185  0.11163  5.5179
3.28968  0.151214  4.70913
0.319031  0.894036  5.78327
2.10608  -0.193786  5.15656
4.3366  1.71601  4.18779
0.454527  1.63132  5.94545
1.0808  0.0979258  5.5179
3.56919  0.564765  4.70913
0.515735  0.79486  5.78327
2.46093  0.024699  5.15656
0.52468  1.54444  5.94545
1.40109  0.138941  5.5179
3.77479  1.0196  4.70913
0.72637  0.730353  5.78327
2.77374  0.300009  5.15656
0.608506  1.47067  5.94545
1.70984  0.233495  5.5179
3.90056  1.50265  4.70913
0.944877  0.702372  5.78327
3.03552  0.624225  5.15656
0.703596  1.41212  5.94545
1.99817  0.378868  5.5179
1.16497  0.711722  5.78327
3.23875  0.98802  5.15656
0.807212  1.37048  5.94545
2.25779  0.570878  5.5179
1.38032  0.758133  5.78327
3.37758  1.38093  5.15656
0.916374  1.34695  5.94545
2.48122  0.804001  5.5179
1.58472  0.84027  5.78327
3.448  1.79164  5.15656
1.02794  1.34221  5.94545
2.66204  1.07153  5.5179
1.77231  0.95577  5.78327
1.13871  1.3564  5.94545
2.79504  1.36577  5.5179
1.93768  1.10131  5.78327
1.24548  1.3891  5.94545
2.87641  1.67826  5.5179
2.07607  1.27271  5.78327
1.34519  1.43937  5.94545
2.1835  1.46502  5.78327
1.43497  1.50577  5.94545
2.25689  1.67273  5.78327
1.51224  1.58639  5.94545
2.29412  1.88985  5.78327
1.57477  1.67891  5.94545
1.62077  1.78067  5.94545
1.64891  1.88873  5.94545
42  21  43
78  23  22
78  24  23
79  78  22
80  79  22
81  80  22
82  24  78
82  78  79
83  81  22
84  82  79
84  79  80
85  83  22
86  80  81
86  84  80
87  25  24
87  24  82
87  26  25
88  85  22
89  81  83
89  86  81
90  87  82
90  82  84
91  88  22
92  83  85
92  89  83
93  84  86
93  90  84
94  91  22
95  92  85
95  85  88
96  93  86
96  86  89
97  94  22
98  26  87
98  87  90
99  95  88
99  88  91
100  89  92
100  96  89
101  97  22
102  90  93
102  98  90
103  91  94
103  99  91
104  92  95
104  100  92
105  101  22
106  102  93
106  93  96
107  94  97
107  103  94
108  26  98
108  27  26
108  28  27
109  104  95
109  95  99
110  105  22
111  106  96
111  96  100
112  97  101
112  107  97
113  108  98
113  98  102
114  109  99
114  99  103
115  110  22
116  111  100
116  100  104
117  101  105
117  112  101
118  102  106
118  113  102
119  103  107
119  114  103
120  115  22
121  116  104
121  104  109
122  105  110
122  117  105
123  106  111
123  118  106
124  107  112
124  119  107
125  120  22
126  108  113
126  28  108
127  109  114
127  121  109
128  122  110
128  110  115
129  111  116
129  123  111
130  112  117
130  124  112
131  125  22
132  126  113
132  113  118
133  114  119
133  127  114
134  128  115
134  115  120
135  129  116
135  116  121
136  117  122
136  130  117
137  131  22
138  118  123
138  132  118
139  119  124
139  133  119
140  134  120
140  120  125
141  29  28
141  30  29
141  28  126
142  121  127
142  135  121
143  136  122
143  122  128
144  137  22
144  22  1
145  123  129
145  138  123
146  139  124
146  124  130
147  140  125
147  125  131
148  141  126
148  126  132
149  127  133
149  142  127
150  143  128
150  128  134
151  144  1
152  129  135
152  145  129
153  130  136
153  146  130
154  131  137
154  147  131
155  132  138
155  148  132
156  133  139
156  149  133
157  134  140
157  150  134
158  151  1
159  152  135
159  135  142
160  153  136
160  136  143
161  137  144
161  154  137
162  138  145
162  155  138
163  156  139
163  139  146
164  157  140
164  140  147
165  158  1
166  30  141
166  141  148
167  142  149
167  159  142
168  143  150
168  160  143
169  161  144
169  144  151
170  145  152
170  162  145
171  163  146
171  146  153
172  164  147
172  147  154
173  165  1
174  166  148
174  148  155
175  167  149
175  149  156
176  150  157
176  168  150
177  169  151
177  151  158
178  152  159
178  170  152
179  171  153
179  153  160
180  154  161
180  172  154
181  173  1
182  174  155
182  155  162
183  175  156
183  156  163
184  176  157
184  157  164
185  177  158
185  158  165
186  31  30
186  32  31
186  30  166
187  178  159
187  159  167
188  179  160
188  160  168
189  161  169
189  180  161
190  181  1
191  162  170
191  182  162
192  163  171
192  183  163
193  164  172
193  184  164
194  185  165
194  165  173
195  166  174
195  186  166
196  187  167
196  167  175
197  168  176
197  188  168
198  169  177
198  189  169
199  190  1
200  191  170
200  170  178
201  192  171
201  171  179
202  172  180
202  193  172
203  194  173
203  173  181
204  174  182
204  195  174
205  196  175
205  175  183
206  197  176
206  176  184
207  198  177
207  177  185
208  199  1
209  178  187
209  200  178
210  179  188
210  201  179
211  202  180
211  180  189
212  203  181
212  181  190
213  182  191
213  204  182
214  205  183
214  183  192
215  206  184
215  184  193
216  207  185
216  185  194
217  186  195
217  32  186
218  208  1
219  209  187
219  187  196
220  188  197
220  210  188
221  189  198
221  211  189
222  190  199
222  212  190
223  213  191
223  191  200
224  214  192
224  192  201
225  193  202
225  215  193
226  194  203
226  216  194
227  217  195
227  195  204
228  218  1
229  196  205
229  219  196
230  220  197
230  197  206
231  198  207
231  221  198
232  222  199
232  199  208
233  223  200
233  200  209
234  224  201
234  201  210
235  202  211
235  225  202
236  203  212
236  226  203
237  204  213
237  227  204
238  228  1
239  229  205
239  205  214
240  206  215
240  230  206
241  231  207
241  207  216
242  33  32
242  34  33
242  32  217
243  232  208
243  208  218
244  233  209
244  209  219
244  66  233
245  210  220
245  234  210
246  235  211
246  211  221
247  236  212
247  212  222
248  213  223
248  237  213
249  238  1
250  214  224
250  239  214
251  240  215
251  215  225
252  216  226
252  241  216
253  217  227
253  242  217
254  218  228
254  243  218
255  219  229
255  66  244
255  63  66
255  244  219
256  245  220
256  220  230
257  221  231
257  246  221
258  222  232
258  247  222
259  248  223
259  223  233
260  249  1
261  224  234
261  250  224
262  225  235
262  251  225
263  226  236
263  252  226
264  227  237
264  253  227
265  228  238
265  254  228
266  229  239
266  255  229
266  64  63
266  65  64
266  63  255
267  256  230
267  230  240
268  257  231
268  231  241
269  232  243
269  258  232
270  259  233
270  66  67
270  233  66
271  260  1
272  234  245
272  261  234
273  235  246
273  262  235
274  236  247
274  263  236
275  237  248
275  264  237
276  265  238
276  238  249
277  65  266
277  50  62
277  62  65
277  239  250
277  266  239
278  240  251
278  267  240
279  268  241
279  241  252
280  242  253
280  34  242
281  243  254
281  269  243
282  271  1
283  272  245
283  245  256
284  273  246
284  246  257
285  274  247
285  247  258
286  275  248
286  248  259
287  276  249
287  249  260
288  50  277
288  277  250
288  250  261
289  251  262
289  278  251
290  252  263
290  279  252
291  253  264
291  280  253
292  254  265
292  281  254
293  282  1
294  256  267
294  283  256
295  257  268
295  284  257
296  258  269
296  285  258
297  270  67
297  286  259
297  259  270
298  260  271
298  287  260
299  50  288
299  261  272
299  288  261
300  289  262
300  262  273
301  290  263
301  263  274
302  264  275
302  291  264
303  265  276
303  292  265
304  293  1
305  294  267
305  267  278
306  268  279
306  295  268
307  35  34
307  36  35
307  34  280
308  296  269
308  269  281
309  68  297
309  67  68
309  297  67
310  271  282
310  298  271
311  272  283
311  299  272
312  273  284
312  300  273
313  274  285
313  301  274
314  302  275
314  275  286
315  303  276
315  276  287
316  1  2
316  2  3
316  304  1
317  305  278
317  278  289
318  306  279
318  279  290
319  280  291
319  307  280
320  308  281
320  281  292
321  310  282
321  282  293
322  311  283
322  283  294
323  284  295
323  312  284
324  285  296
324  313  285
325  286  297
325  314  286
326  287  298
326  315  287
327  51  50
327  50  299
328  289  300
328  317  289
329  290  301
329  318  290
330  291  302
330  319  291
331  320  292
331  292  303
332  321  293
332  293  304
333  294  305
333  322  294
334  295  306
334  323  295
335  296  308
335  324  296
336  297  68
336  325  297
336  68  69
337  298  310
337  326  298
338  327  299
338  299  311
339  300  312
339  328  300
340  301  313
340  329  301
341  330  302
341  302  314
342  331  303
342  303  315
343  332  304
343  316  3
343  304  316
344  333  305
344  305  317
345  334  306
345  306  318
346  36  307
346  307  319
347  308  320
347  335  308
348  337  310
348  310  321
349  311  322
349  338  311
350  339  312
350  312  323
351  340  313
351  313  324
352  341  314
352  314  325
353  342  315
353  315  326
354  52  51
355  344  317
355  317  328
356  318  329
356  345  318
357  346  319
357  319  330
358  347  320
358  320  331
359  321  332
359  348  321
360  322  333
360  349  322
361  323  334
361  350  323
362  351  324
362  324  335
363  325  336
363  352  325
363  336  69
363  69  70
364  353  326
364  326  337
365  52  354
365  354  51
365  327  338
365  51  327
366  355  328
366  328  339
367  329  340
367  356  329
368  330  341
368  357  330
369  358  331
369  331  342
370  332  343
370  359  332
371  333  344
371  360  333
372  334  345
372  361  334
373  36  346
373  37  36
373  38  37
374  335  347
374  362  335
375  364  337
375  337  348
376  365  338
376  338  349
377  366  339
377  339  350
378  340  351
378  367  340
379  368  341
379  341  352
380  369  342
380  342  353
381  3  4
381  4  5
381  370  343
381  343  3
382  371  344
382  344  355
383  372  345
383  345  356
384  346  357
384  373  346
385  374  347
385  347  358
386  375  348
386  348  359
387  376  349
387  349  360
388  377  350
388  350  361
389  378  351
389  351  362
390  352  363
390  363  70
390  379  352
391  380  353
391  353  364
392  53  52
392  52  365
393  355  366
393  382  355
394  356  367
394  383  356
395  384  357
395  357  368
396  385  358
396  358  369
397  359  370
397  386  359
398  387  360
398  360  371
399  388  361
399  361  372
400  389  362
400  362  374
401  70  71
401  390  70
401  71  72
401  72  390
402  391  364
402  364  375
403  365  376
403  392  365
404  366  377
404  393  366
405  367  378
405  394  367
406  368  379
406  395  368
407  396  369
407  369  380
408  397  370
408  381  5
408  370  381
409  398  371
409  371  382
410  399  372
410  372  383
411  373  384
411  38  373
412  374  385
412  400  374
413  402  375
413  375  386
414  376  387
414  403  376
415  377  388
415  404  377
416  405  378
416  378  389
417  379  390
417  406  379
417  74  75
418  407  380
418  380  391
419  54  53
420  409  382
420  382  393
421  410  383
421  383  394
422  384  395
422  411  384
423  412  385
423  385  396
424  386  397
424  413  386
425  414  387
425  387  398
426  415  388
426  388  399
427  416  389
427  389  400
428  417  390
428  74  417
428  72  73
428  73  74
428  390  72
429  391  402
429  418  391
430  392  403
430  54  419
430  419  53
430  53  392
431  420  393
431  393  404
432  394  405
432  421  394
433  395  406
433  49  422
433  77  49
433  422  395
434  423  396
434  396  407
435  424  397
435  397  408
436  398  409
436  425  398
437  426  399
437  399  410
438  39  38
438  40  39
438  38  411
439  400  412
439  427  400
440  402  413
440  429  402
441  403  414
441  430  403
442  431  404
442  404  415
443  405  416
443  432  405
444  77  433
444  75  76
444  76  77
444  433  406
444  417  75
444  406  417
445  407  418
445  434  407
446  5  6
446  6  7
446  435  408
446  408  5
447  409  420
447  436  409
448  437  410
448  410  421
449  411  422
449  422  49
449  438  411
450  412  423
450  439  412
451  440  413
451  413  424
452  441  414
452  414  425
453  442  415
453  415  426
454  443  416
454  416  427
455  445  418
455  418  429
456  54  430
456  55  54
456  56  55
457  447  420
457  420  431
458  421  432
458  448  421
459  49  48
459  449  49
460  423  434
460  450  423
461  424  435
461  451  424
462  452  425
462  425  436
463  453  426
463  426  437
464  427  439
464  454  427
465  455  429
465  429  440
466  456  430
466  430  441
467  431  442
467  457  431
468  432  443
468  458  432
469  460  434
469  434  445
470  446  7
470  435  446
470  461  435
471  436  447
471  462  436
472  463  437
472  437  448
473  40  438
473  21  40
473  438  449
474  464  439
474  439  450
475  440  451
475  465  440
476  441  452
476  466  441
477  442  453
477  467  442
478  443  454
478  468  443
479  469  445
479  445  455
480  57  56
481  447  457
481  471  447
482  472  448
482  448  458
483  473  449
483  21  473
483  459  48
483  449  459
484  450  460
484  474  450
485  475  451
485  451  461
486  452  462
486  476  452
487  477  453
487  453  463
488  454  464
488  478  454
489  479  455