VARIABLES = X Y Z
ZONE N =698, E =1323, DATAPACKING = POINT, ZONETYPE = FETRIANGLE
1  2  -2
1.65838  2  -1.94545
2.2988  2  -1.78327
2.90379  2  -1.5179
3.45685  2  -1.15656
3.9429  2  -0.709126
4.34867  2  -0.187793
4.66309  2  0.393218
4.8776  2  1.01806
4.98634  2  1.66968
4.98634  2  2.33032
4.8776  2  2.98194
4.66309  2  3.60678
4.34867  2  4.18779
3.9429  2  4.70913
3.45685  2  5.15656
2.90379  2  5.5179
2.2988  2  5.78327
1.65838  2  5.94545
1  2  6
1  2  6
1  2  -2
1.65838  2  -1.94545
2.2988  2  -1.78327
2.90379  2  -1.5179
3.45685  2  -1.15656
3.9429  2  -0.709126
4.34867  2  -0.187793
4.66309  2  0.393218
4.8776  2  1.01806
4.98634  2  1.66968
4.98634  2  2.33032
4.8776  2  2.98194
4.66309  2  3.60678
4.34867  2  4.18779
3.9429  2  4.70913
3.45685  2  5.15656
2.90379  2  5.5179
2.2988  2  5.78327
1.65838  2  5.94545
0.700216  5.97903  2.27828
0.700211  5.8713  2.9608
0.700211  5.6474  3.61449
0.700211  5.31404  4.21975
0.700211  5.10932  4.49845
0.700211  4.88124  4.75837
0.700211  4.63149  4.99756
0.700211  4.36197  5.21423
0.700211  3.80799  5.55546
0.700211  3.51198  5.69108
0.700212  3.2059  5.8021
0.989235  5.99995  1.98923
1.27828  5.97903  1.70021
1.64933  5.93554  1.70021
2.28746  5.77734  2.27226
1.97413  5.87952  1.98622
2.28746  5.66944  2.93682
2.28746  5.44558  3.57176
2.28746  5.11284  4.15701
2.28746  4.90878  4.42517
2.28746  4.6817  4.67412
2.28746  4.4334  4.9019
2.28746  4.16584  5.1067
2.28746  3.69081  5.38875
2.28746  3.43914  5.50305
2.28745  3.1798  5.59868
1.66042  2.70692  5.88125
1.96903  2.95977  5.76026
1.28304  2.70692  5.92685
1.47228  2.70692  5.90861
0.939657  3.09723  5.84609
1.1074  2.96547  5.88025
1.20802  2.84495  5.9042
1.65601  2.05583  -1.94545
1.63713  2.1659  -1.94545
1.59993  2.27119  -1.94545
1.54547  2.36868  -1.94545
2.28012  2.2195  -1.78327
1.47532  2.45556  -1.94545
2.22461  2.43268  -1.78327
1.39149  2.52933  -1.94545
2.13387  2.63342  -1.78327
2.89693  2.16145  -1.5179
1.2964  2.58788  -1.94545
2.01051  2.81593  -1.78327
2.84236  2.47971  -1.5179
1.19279  2.62952  -1.94545
1.85808  2.97497  -1.78327
2.73479  2.78417  -1.5179
1.08363  2.65305  -1.94545
1.68097  3.10596  -1.78327
2.57731  3.06607  -1.5179
0.972058  2.65779  -1.94545
3.42151  2.41521  -1.15656
1.48427  3.20514  -1.78327
2.37445  3.31731  -1.5179
0.861293  2.6436  -1.94545
3.31651  2.81847  -1.15656
1.27363  3.26965  -1.78327
2.13206  3.53064  -1.5179
0.754519  2.6109  -1.94545
3.14487  3.19819  -1.15656
1.05512  3.29763  -1.78327
3.93229  2.24957  -0.709126
1.85709  3.69994  -1.5179
0.654807  2.56063  -1.94545
2.91152  3.54344  -1.15656
0.83503  3.28828  -1.78327
3.84794  2.74155  -0.709126
1.55747  3.82034  -1.5179
0.565026  2.49423  -1.94545
2.62318  3.84429  -1.15656
0.619682  3.24187  -1.78327
3.68165  3.21218  -0.709126
1.24182  3.88837  -1.5179
0.487758  2.41361  -1.94545
2.28814  4.09208  -1.15656
0.415276  3.15973  -1.78327
3.43822  3.64795  -0.709126
0.919201  3.90207  -1.5179
0.425226  2.32109  -1.94545
4.3005  2.56593  -0.187793
1.91605  4.27968  -1.15656
0.227692  3.04423  -1.78327
3.12464  4.0363  -0.709126
0.598911  3.86106  -1.5179
0.37923  2.21933  -1.94545
4.15738  3.11557  -0.187793
1.51761  4.40171  -1.15656
0.062325  2.89869  -1.78327
2.74994  4.36608  -0.709126
0.29016  3.76651  -1.5179
0.351092  2.11127  -1.94545
3.92343  3.63313  -0.187793
1.10427  4.45464  -1.15656
-0.0760666  2.72729  -1.78327
4.6499  2.31065  0.393218
2.3249  4.62779  -0.709126
0.00182926  3.62113  -1.5179
0.341622  2  -1.94545
3.60538  4.1037  -0.187793
0.687936  4.43695  -1.15656
-0.183502  2.53498  -1.78327
4.5449  2.92302  0.393218
1.86175  4.8139  -0.709126
-0.257786  3.42912  -1.5179
0.351092  1.88873  -1.94545
3.21238  4.51375  -0.187793
0.280578  4.34916  -1.15656
-0.256889  2.32727  -1.78327
4.33791  3.50883  0.393218
1.3738  4.91906  -0.709126
-0.481216  3.196  -1.5179
0.37923  1.78067  -1.94545
2.75573  4.85149  -0.187793
-0.106083  4.19379  -1.15656
-0.294119  2.11015  -1.78327
4.03491  4.05124  0.393218
0.8751  4.94024  -0.709126
-0.662035  2.92847  -1.5179
0.425226  1.67891  -1.94545
4.82183  2.65532  1.01806
2.24857  5.10719  -0.187793
-0.460925  3.9753  -1.15656
-0.294119  1.88985  -1.78327
3.64459  4.53464  0.393218
0.379993  4.87684  -0.709126
-0.79504  2.63423  -1.5179
0.487758  1.58639  -1.94545
4.6561  3.29178  1.01806
1.70549  5.27351  -0.187793
-0.773738  3.69999  -1.15656
-0.256889  1.67273  -1.78327
3.1782  4.94512  0.393218
-0.0972777  4.73068  -0.709126
-0.876405  2.32174  -1.5179
0.565026  1.50577  -1.94545
4.3852  3.89109  1.01806
1.14212  5.34565  -0.187793
-1.03552  3.37577  -1.15656
-0.183502  1.46502  -1.78327
4.97198  2.33807  1.66968
2.64914  5.27087  0.393218
-0.542982  4.50596  -0.709126
-0.90379  2  -1.5179
0.654807  1.43937  -1.94545
4.01691  4.43599  1.01806
0.57466  5.32154  -0.187793
-1.23875  3.01198  -1.15656
-0.0760666  1.27271  -1.78327
4.85771  3.00447  1.66968
2.07264  5.50253  0.393218
-0.944297  4.20915  -0.709126
-0.876405  1.67826  -1.5179
0.754519  1.3891  -1.94545
3.56183  4.91081  1.01806
0.0194344  5.20188  -0.187793
-1.37758  2.61907  -1.15656
0.062325  1.10131  -1.78327
4.63246  3.64198  1.66968
1.46528  5.63342  0.393218
-1.28968  3.84879  -0.709126
-0.79504  1.36577  -1.5179
0.861293  1.3564  -1.94545
3.03305  5.30189  1.01806
-0.507582  4.99011  -0.187793
-1.448  2.20836  -1.15656
0.227692  0.95577  -1.78327
4.30272  4.23225  1.66968
0.844534  5.65979  0.393218
-1.56919  3.43524  -0.709126
-0.662035  1.07153  -1.5179
4.929  2.67369  2.33032
0.972058  1.34221  -1.94545
2.44579  5.59798  1.01806
-0.991228  4.69232  -0.187793
-1.448  1.79164  -1.15656
0.415276  0.84027  -1.78327
3.87796  4.7583  1.66968
0.228262  5.58088  0.393218
-1.77479  2.9804  -0.709126
-0.481216  0.804001  -1.5179
4.75863  3.32801  2.33032
1.08363  1.34695  -1.94545
1.81693  5.79057  1.01806
-1.41759  4.31707  -0.187793
-1.37758  1.38093  -1.15656
0.619682  0.758133  -1.78327
3.37041  5.205  1.66968
-0.365808  5.39894  0.393218
-1.90056  2.49735  -0.709126
-0.257786  0.570878  -1.5179
4.48013  3.94412  2.33032
1.19279  1.37048  -1.94545
1.16457  5.87411  1.01806
-1.7744  3.87517  -0.187793
-1.23875  0.98802  -1.15656
4.86363  2.32884  2.98194
0.83503  0.711722  -1.78327
2.79466  5.5595  1.66968
-0.920587  5.11923  0.393218
-1.9429  2  -0.709126
0.00182926  0.378868  -1.5179
4.10151  4.5043  2.33032
1.2964  1.41212  -1.94545
0.507476  5.84619  1.01806
-2.0514  3.37932  -0.187793
-1.03552  0.624225  -1.15656
4.75248  2.97707  2.98194
1.05512  0.702372  -1.78327
2.16729  5.8116  1.66968
-1.42011  4.74978  0.393218
-1.90056  1.50265  -0.709126
0.29016  0.233495  -1.5179
3.63367  4.99243  2.33032
1.39149  1.47067  -1.94545
-0.13545  5.70763  1.01806
-2.24061  2.84379  -0.187793
-0.773738  0.300009  -1.15656
4.53338  3.59719  2.98194
1.27363  0.730353  -1.78327
1.50634  5.95405  1.66968
-1.85002  4.30123  0.393218
-1.77479  1.0196  -0.709126
0.598911  0.138941  -1.5179
3.09007  5.39448  2.33032
1.47532  1.54444  -1.94545
-0.745711  5.46241  1.01806
-2.3366  2.28399  -0.187793
-0.460925  0.024699  -1.15656
4.21263  4.17136  2.98194
1.48427  0.79486  -1.78327
0.830815  5.98275  1.66968
-2.19793  3.78647  0.393218
-1.56919  0.564765  -0.709126
4.6104  2.61907  3.60678
0.919201  0.0979258  -1.5179
2.48633  5.69888  2.33032
1.54547  1.63132  -1.94545
-1.30575  5.11758  1.01806
-2.3366  1.71601  -0.187793
-0.106083  -0.193786  -1.15656
3.79946  4.68306  2.98194
1.68097  0.894036  -1.78327
0.160161  5.89687  1.66968
-2.45385  3.22032  0.393218
-1.28968  0.151214  -0.709126
4.45385  3.22032  3.60678
1.24182  0.11163  -1.5179
1.59993  1.72881  -1.94545
-1.79946  4.68306  1.01806
-2.24061  1.15621  -0.187793
0.280578  -0.349159  -1.15656
3.30575  5.11758  2.98194
1.85808  1.02503  -1.78327
-0.486332  5.69888  1.66968
-2.6104  2.61907  0.393218
-0.944297  -0.20915  -0.709126
4.19793  3.78647  3.60678
1.55747  0.17966  -1.5179
1.63713  1.8341  -1.94545
-2.21263  4.17136  1.01806
-2.0514  0.62068  -0.187793
4.3366  2.28399  4.18779
0.687936  -0.436951  -1.15656
2.74571  5.46241  2.98194
2.01051  1.18407  -1.78327
-1.09007  5.39448  1.66968
-2.66309  2  0.393218
-0.542982  -0.505961  -0.709126
3.85002  4.30123  3.60678
1.85709  0.300057  -1.5179
1.65601  1.94417  -1.94545
-2.53338  3.59719  1.01806
-1.7744  0.124832  -0.187793
4.24061  2.84379  4.18779
1.10427  -0.454637  -1.15656
2.13387  1.36658  -1.78327
-1.63367  4.99243  1.66968
-2.6104  1.38093  0.393218
-0.0972777  -0.730681  -0.709126
3.42011  4.74978  3.60678
2.13206  0.469359  -1.5179
-0.167291  5.8116  2.33032
-2.75248  2.97707  1.01806
-1.41759  -0.317072  -0.187793
4.0514  3.37932  4.18779
1.51761  -0.401707  -1.15656
2.22461  1.56732  -1.78327
-2.10151  4.5043  1.66968
-2.45385  0.779678  0.393218
0.379993  -0.876843  -0.709126
2.92059  5.11923  3.60678
2.37445  0.682694  -1.5179
-0.794664  5.5595  2.33032
-2.86363  2.32884  1.01806
-0.991228  -0.692318  -0.187793
3.7744  3.87517  4.18779
1.91605  -0.279685  -1.15656
2.28012  1.7805  -1.78327
-2.48013  3.94412  1.66968
-2.19793  0.213528  0.393218
3.90056  2.49735  4.70913
0.8751  -0.940244  -0.709126
2.57731  0.933926  -1.5179
-1.37041  5.205  2.33032
-2.86363  1.67116  1.01806
-0.507582  -0.99011  -0.187793
3.41759  4.31707  4.18779
2.28814  -0.0920801  -1.15656
0.18307  5.79057  2.98194
-2.75863  3.32801  1.66968
-1.85002  -0.301228  0.393218
3.77479  2.9804  4.70913
1.3738  -0.919059  -0.709126
2.73479  1.21583  -1.5179
-1.87796  4.7583  2.33032
-2.75248  1.02293  1.01806
0.0194344  -1.20188  -0.187793
2.99123  4.69232  4.18779
2.62318  0.15571  -1.15656
-0.445789  5.59798  2.98194
-2.929  2.67369  1.66968
-1.42011  -0.749783  0.393218
3.56919  3.43524  4.70913
1.86175  -0.813899  -0.709126
2.84236  1.52029  -1.5179
-2.30272  4.23225  2.33032
-2.53338  0.402811  1.01806
3.448  2.20836  5.15656
0.57466  -1.32154  -0.187793
2.50758  4.99011  4.18779
2.91152  0.456557  -1.15656
-1.03305  5.30189  2.98194
-2.98634  2  1.66968
-0.920587  -1.11923  0.393218
3.28968  3.84879  4.70913
2.3249  -0.627788  -0.709126
0.534722  5.63342  3.60678
2.89693  1.83855  -1.5179
-2.63246  3.64198  2.33032
-2.21263  -0.171359  1.01806
3.37758  2.61907  5.15656
1.14212  -1.34565  -0.187793
3.14487  0.801806  -1.15656
-1.56183  4.91081  2.98194
-2.929  1.32631  1.66968
-0.365808  -1.39894  0.393218
2.9443  4.20915  4.70913
2.74994  -0.36608  -0.709126
-0.0726371  5.50253  3.60678
-2.85771  3.00447  2.33032
-1.79946  -0.683063  1.01806
3.23875  3.01198  5.15656
1.70549  -1.27351  -0.187793
3.31651  1.18153  -1.15656
-2.01691  4.43599  2.98194
-2.75863  0.671992  1.66968
0.228262  -1.58088  0.393218
2.54298  4.50596  4.70913
3.12464  -0.0363039  -0.709126
-0.649138  5.27087  3.60678
-2.97198  2.33807  2.33032
-1.30575  -1.11758  1.01806
3.03552  3.37577  5.15656
2.24857  -1.10719  -0.187793
3.42151  1.58479  -1.15656
-2.3852  3.89109  2.98194
-2.48013  0.0558831  1.66968
2.87641  2.32174  5.5179
0.844534  -1.65979  0.393218
3.43822  0.352053  -0.709126
-1.1782  4.94512  3.60678
-2.97198  1.66193  2.33032
-0.745711  -1.46241  1.01806
2.77374  3.69999  5.15656
2.75573  -0.851487  -0.187793
0.294506  5.27351  4.18779
-2.6561  3.29178  2.98194
-2.10151  -0.504297  1.66968
2.79504  2.63423  5.5179
1.46528  -1.63342  0.393218
3.68165  0.787818  -0.709126
-1.64459  4.53464  3.60678
-2.85771  0.99553  2.33032
-0.13545  -1.70763  1.01806
2.46093  3.9753  5.15656
3.21238  -0.513751  -0.187793
-0.248572  5.10719  4.18779
-2.82183  2.65532  2.98194
-1.63367  -0.992434  1.66968
2.66204  2.92847  5.5179
2.07264  -1.50253  0.393218
3.84794  1.25845  -0.709126
-2.03491  4.05124  3.60678
-2.63246  0.358022  2.33032
2.29412  2.11015  5.78327
0.507476  -1.84619  1.01806
3.60538  -0.103699  -0.187793
-0.75573  4.85149  4.18779
-2.8776  2  2.98194
-1.09007  -1.39448  1.66968
2.48122  3.196  5.5179
2.64914  -1.27087  0.393218
0.6262  4.91906  4.70913
3.93229  1.75043  -0.709126
-2.33791  3.50883  3.60678
-2.30272  -0.232249  2.33032
2.25689  2.32727  5.78327
1.16457  -1.87411  1.01806
3.92343  0.366873  -0.187793
-1.21238  4.51375  4.18779
-2.82183  1.34468  2.98194
-0.486332  -1.69888  1.66968
3.1782  -0.945117  0.393218
0.138253  4.8139  4.70913
-2.5449  2.92302  3.60678
-1.87796  -0.758302  2.33032
2.1835  2.53498  5.78327
1.81693  -1.79057  1.01806
4.15738  0.884426  -0.187793
-1.60538  4.1037  4.18779
-2.6561  0.708217  2.98194
0.160161  -1.89687  1.66968
3.64459  -0.534637  0.393218
-0.324903  4.62779  4.70913
-2.6499  2.31065  3.60678
-1.37041  -1.205  2.33032
2.07607  2.72729  5.78327
2.44579  -1.59798  1.01806
4.3005  1.43407  -0.187793
-1.92343  3.63313  4.18779
-2.3852  0.108914  2.98194
1.64891  2.11127  5.94545
0.830815  -1.98275  1.66968
4.03491  -0.0512399  0.393218
-0.749943  4.36608  4.70913
-2.6499  1.68935  3.60678
-0.794664  -1.5595  2.33032
3.03305  -1.30189  1.01806
0.482392  4.40171  5.15656
-2.15738  3.11557  4.18779
-2.01691  -0.435987  2.98194
1.62077  2.21933  5.94545
1.50634  -1.95405  1.66968
4.33791  0.491167  0.393218
-1.12464  4.0363  4.70913
-2.5449  1.07698  3.60678
-0.167291  -1.8116  2.33032
3.56183  -0.910808  1.01806
0.0839472  4.27968  5.15656
-2.3005  2.56593  4.18779
-1.56183  -0.910808  2.98194
1.57477  2.32109  5.94545
2.16729  -1.8116  1.66968
4.5449  1.07698  0.393218
-1.43822  3.64795  4.70913
-2.33791  0.491167  3.60678
0.493664  -1.95405  2.33032
4.01691  -0.435987  1.01806
-0.288145  4.09208  5.15656
-2.34867  2  4.18779
-1.03305  -1.30189  2.98194
1.51224  2.41361  5.94545
2.79466  -1.5595  1.66968
4.6499  1.68935  0.393218
-1.68165  3.21218  4.70913
-2.03491  -0.0512399  3.60678
1.16918  -1.98275  2.33032
4.3852  0.108914  1.01806
-0.623179  3.84429  5.15656
-2.3005  1.43407  4.18779
-0.445789  -1.59798  2.98194
1.43497  2.49423  5.94545
3.37041  -1.205  1.66968
0.442527  3.82034  5.5179
-1.84794  2.74155  4.70913
-1.64459  -0.534637  3.60678
1.83984  -1.89687  2.33032
4.6561  0.708217  1.01806
-0.911518  3.54344  5.15656
-2.15738  0.884426  4.18779
0.18307  -1.79057  2.98194
1.34519  2.56063  5.94545
3.87796  -0.758302  1.66968
0.142907  3.69994  5.5179
-1.93229  2.24957  4.70913
-1.1782  -0.945117  3.60678
2.48633  -1.69888  2.33032
4.82183  1.34468  1.01806
-1.14487  3.19819  5.15656
-1.92343  0.366873  4.18779
0.83543  -1.87411  2.98194
1.24548  2.6109  5.94545
4.30272  -0.232249  1.66968
-0.132056  3.53064  5.5179
-1.93229  1.75043  4.70913
-0.649138  -1.27087  3.60678
3.09007  -1.39448  2.33032
-1.31651  2.81847  5.15656
-1.60538  -0.103699  4.18779
1.49252  -1.84619  2.98194
1.13871  2.6436  5.94545
4.63246  0.358022  1.66968
-0.374452  3.31731  5.5179
-1.84794  1.25845  4.70913
-0.0726371  -1.50253  3.60678
3.63367  -0.992434  2.33032
0.515735  3.20514  5.78327
-1.42151  2.41521  5.15656
-1.21238  -0.513751  4.18779
2.13545  -1.70763  2.98194
1.02794  2.65779  5.94545
4.85771  0.99553  1.66968
-0.577308  3.06607  5.5179
-1.68165  0.787818  4.70913
0.534722  -1.63342  3.60678
4.10151  -0.504297  2.33032
0.319031  3.10596  5.78327
-1.45685  2  5.15656
-0.75573  -0.851487  4.18779
2.74571  -1.46241  2.98194
0.916374  2.65305  5.94545
4.97198  1.66193  1.66968
-0.734787  2.78417  5.5179
-1.43822  0.352053  4.70913
1.15547  -1.65979  3.60678
4.48013  0.0558831  2.33032
0.141917  2.97497  5.78327
-1.42151  1.58479  5.15656
-0.248572  -1.10719  4.18779
3.30575  -1.11758  2.98194
0.807212  2.62952  5.94545
-0.84236  2.47971  5.5179
-1.12464  -0.0363039  4.70913
1.77174  -1.58088  3.60678
4.75863  0.671992  2.33032
-0.0105112  2.81593  5.78327
-1.31651  1.18153  5.15656
0.294506  -1.27351  4.18779
3.79946  -0.683063  2.98194
0.703596  2.58788  5.94545
-0.896931  2.16145  5.5179
-0.749943  -0.36608  4.70913
2.36581  -1.39894  3.60678
4.929  1.32631  2.33032
-0.133869  2.63342  5.78327
-1.14487  0.801806  5.15656
0.857879  -1.34565  4.18779
4.21263  -0.171359  2.98194
0.608506  2.52933  5.94545
-0.896931  1.83855  5.5179
-0.324903  -0.627788  4.70913
2.92059  -1.11923  3.60678
-0.224607  2.43268  5.78327
-0.911518  0.456557  5.15656
1.42534  -1.32154  4.18779
4.53338  0.402811  2.98194
0.52468  2.45556  5.94545
-0.84236  1.52029  5.5179
0.138253  -0.813899  4.70913
3.42011  -0.749783  3.60678
-0.280116  2.2195  5.78327
-0.623179  0.15571  5.15656
1.98057  -1.20188  4.18779
4.75248  1.02293  2.98194
0.454527  2.36868  5.94545
-0.734787  1.21583  5.5179
0.6262  -0.919059  4.70913
3.85002  -0.301228  3.60678
-0.298798  2  5.78327
-0.288145  -0.0920801  5.15656
2.50758  -0.99011  4.18779
4.86363  1.67116  2.98194
0.400067  2.27119  5.94545
-0.577308  0.933926  5.5179
1.1249  -0.940244  4.70913
4.19793  0.213528  3.60678
-0.280116  1.7805  5.78327
0.0839472  -0.279685  5.15656
2.99123  -0.692318  4.18779
0.362866  2.1659  5.94545
-0.374452  0.682694  5.5179
1.62001  -0.876843  4.70913
4.45385  0.779678  3.60678
-0.224607  1.56732  5.78327
0.482392  -0.401707  5.15656
3.41759  -0.317072  4.18779
0.343993  2.05583  5.94545
-0.132056  0.469359  5.5179
2.09728  -0.730681  4.70913
4.6104  1.38093  3.60678
-0.133869  1.36658  5.78327
0.895728  -0.454637  5.15656
3.7744  0.124832  4.18779
0.343993  1.94417  5.94545
0.142907  0.300057  5.5179
2.54298  -0.505961  4.70913
-0.0105112  1.18407  5.78327
1.31206  -0.436951  5.15656
4.0514  0.62068  4.18779
0.362866  1.8341  5.94545
0.442527  0.17966  5.5179
2.9443  -0.20915  4.70913
0.141917  1.02503  5.78327
1.71942  -0.349159  5.15656
4.24061  1.15621  4.18779
0.400067  1.72881  5.94545
0.758185  0.11163  5.5179
3.28968  0.151214  4.70913
0.319031  0.894036  5.78327
2.10608  -0.193786  5.15656
4.3366  1.71601  4.18779
0.454527  1.63132  5.94545
1.0808  0.0979258  5.5179
3.56919  0.564765  4.70913
0.515735  0.79486  5.78327
2.46093  0.024699  5.15656
0.52468  1.54444  5.94545
1.40109  0.138941  5.5179
3.77479  1.0196  4.70913
0.72637  0.730353  5.78327
2.77374  0.300009  5.15656
0.608506  1.47067  5.94545
1.70984  0.233495  5.5179
3.90056  1.50265  4.70913
0.944877  0.702372  5.78327
3.03552  0.624225  5.15656
0.703596  1.41212  5.94545
1.99817  0.378868  5.5179
1.16497  0.711722  5.78327
3.23875  0.98802  5.15656
0.807212  1.37048  5.94545
2.25779  0.570878  5.5179
1.38032  0.758133  5.78327
3.37758  1.38093  5.15656
0.916374  1.34695  5.94545
2.48122  0.804001  5.5179
1.58472  0.84027  5.78327
3.448  1.79164  5.15656
1.02794  1.34221  5.94545
2.66204  1.07153  5.5179
1.77231  0.95577  5.78327
1.13871  1.3564  5.94545
2.79504  1.36577  5.5179
1.93768  1.10131  5.78327
1.24548  1.3891  5.94545
2.87641  1.67826  5.5179
2.07607  1.27271  5.78327
1.34519  1.43937  5.94545
2.1835  1.46502  5.78327
1.43497  1.50577  5.94545
2.25689  1.67273  5.78327
1.51224  1.58639  5.94545
2.29412  1.88985  5.78327
1.57477  1.67891  5.94545
1.62077  1.78067  5.94545
1.64891  1.88873  5.94545
74  23  22
74  24  23
75  74  22
76  75  22
77  76  22
78  74  75
78  24  74
79  77  22
80  78  75
80  75  76
81  79  22
82  76  77
82  80  76
83  25  24
83  26  25
83  24  78
84  81  22
85  82  77
85  77  79
86  78  80
86  83  78
87  84  22
88  85  79
88  79  81
89  80  82
89  86  80
90  87  22
91  88  81
91  81  84
92  89  82
92  82  85
93  90  22
94  26  83
94  83  86
95  91  84
95  84  87
96  92  85
96  85  88
97  93  22
98  94  86
98  86  89
99  95  87
99  87  90
100  96  88
100  88  91
101  97  22
102  98  89
102  89  92
103  99  90
103  90  93
104  27  26
104  28  27
104  26  94
105  100  91
105  91  95
106  101  22
107  92  96
107  102  92
108  103  93
108  93  97
109  104  94
109  94  98
110  105  95
110  95  99
111  106  22
112  96  100
112  107  96
113  108  97
113  97  101
114  98  102
114  109  98
115  99  103
115  110  99
116  111  22
117  100  105
117  112  100
118  113  101
118  101  106
119  114  102
119  102  107
120  103  108
120  115  103
121  116  22
122  28  104
122  104  109
123  117  105
123  105  110
124  106  111
124  118  106
125  119  107
125  107  112
126  108  113
126  120  108
127  121  22
128  109  114
128  122  109
129  110  115
129  123  110
130  124  111
130  111  116
131  112  117
131  125  112
132  113  118
132  126  113
133  127  22
134  114  119
134  128  114
135  115  120
135  129  115
136  130  116
136  116  121
137  29  28
137  30  29
137  28  122
138  131  117
138  117  123
139  132  118
139  118  124
140  133  22
140  22  1
141  134  119
141  119  125
142  135  120
142  120  126
143  121  127
143  136  121
144  137  122
144  122  128
145  123  129
145  138  123
146  139  124
146  124  130
147  140  1
148  141  125
148  125  131
149  126  132
149  142  126
150  143  127
150  127  133
151  128  134
151  144  128
152  129  135
152  145  129
153  146  130
153  130  136
154  147  1
155  148  131
155  131  138
156  149  132
156  132  139
157  133  140
157  150  133
158  134  141
158  151  134
159  152  135
159  135  142
160  153  136
160  136  143
161  154  1
162  30  137
162  137  144
163  138  145
163  155  138
164  139  146
164  156  139
165  157  140
165  140  147
166  141  148
166  158  141
167  142  149
167  159  142
168  160  143
168  143  150
169  161  1
170  162  144
170  144  151
171  163  145
171  145  152
172  146  153
172  164  146
173  165  147
173  147  154
174  148  155
174  166  148
175  149  156
175  167  149
176  168  150
176  150  157
177  169  1
178  170  151
178  151  158
179  171  152
179  152  159
180  153  160
180  172  153
181  154  161
181  173  154
182  31  30
182  32  31
182  30  162
183  155  163
183  174  155
184  156  164
184  175  156
185  176  157
185  157  165
186  177  1
187  158  166
187  178  158
188  179  159
188  159  167
189  160  168
189  180  160
190  181  161
190  161  169
191  162  170
191  182  162
192  183  163
192  163  171
193  184  164
193  164  172
194  185  165
194  165  173
195  186  1
196  187  166
196  166  174
197  167  175
197  188  167
198  168  176
198  189  168
199  169  177
199  190  169
200  191  170
200  170  178
201  171  179
201  192  171
202  172  180
202  193  172
203  194  173
203  173  181
204  195  1
205  174  183
205  196  174
206  175  184
206  197  175
207  198  176
207  176  185
208  199  177
208  177  186
209  178  187
209  200  178
210  201  179
210  179  188
211  202  180
211  180  189
212  203  181
212  181  190
213  32  182
213  182  191
214  204  1
215  205  183
215  183  192
216  206  184
216  184  193
217  207  185
217  185  194
218  186  195
218  208  186
219  209  187
219  187  196
220  188  197
220  210  188
221  189  198
221  211  189
222  190  199
222  212  190
223  213  191
223  191  200
224  214  1
225  215  192
225  192  201
226  193  202
226  216  193
227  194  203
227  217  194
228  195  204
228  218  195
229  219  196
229  196  205
230  197  206
230  220  197
231  221  198
231  198  207
232  222  199
232  199  208
233  200  209
233  223  200
234  224  1
235  201  210
235  225  201
236  226  202
236  202  211
237  227  203
237  203  212
238  33  32
238  34  33
238  32  213
239  228  204
239  204  214
240  229  205
240  205  215
241  206  216
241  230  206
242  231  207
242  207  217
243  232  208
243  208  218
244  233  209
244  209  219
245  234  1
246  235  210
246  210  220
247  236  211
247  211  221
248  237  212
248  212  222
249  238  213
249  213  223
250  239  214
250  214  224
251  56  240
251  240  215
251  54  56
251  215  225
252  216  226
252  241  216
253  217  227
253  242  217
254  218  228
254  243  218
255  219  229
255  244  219
256  245  1
257  220  230
257  246  220
258  247  221
258  221  231
259  222  232
259  248  222
260  223  233
260  249  223
261  250  224
261  224  234
262  225  235
262  53  54
262  54  251
262  251  225
263  226  236
263  252  226
264  253  227
264  227  237
265  228  239
265  254  228
266  229  240
266  255  229
266  240  56
266  56  55
267  256  1
268  230  241
268  257  230
269  231  242
269  258  231
270  259  232
270  232  243
271  233  244
271  260  233
272  261  234
272  234  245
273  53  262
273  52  53
273  262  235
273  235  246
274  236  247
274  263  236
275  237  248
275  264  237
276  34  238
276  238  249
277  265  239
277  239  250
278  266  55
278  55  57
279  267  1
280  241  252
280  268  241
281  242  253
281  269  242
282  270  243
282  243  254
283  271  244
283  244  255
284  272  245
284  245  256
285  52  273
285  273  246
285  246  257
286  274  247
286  247  258
287  248  259
287  275  248
288  249  260
288  276  249
289  277  250
289  250  261
290  279  1
291  252  263
291  280  252
292  281  253
292  253  264
293  254  265
293  282  254
294  255  266
294  283  255
295  256  267
295  284  256
296  257  268
296  285  257
297  286  258
297  258  269
298  259  270
298  287  259
299  260  271
299  288  260
300  289  261
300  261  272
301  290  1
302  263  274
302  291  263
303  264  275
303  292  264
304  34  276
304  35  34
304  36  35
305  265  277
305  293  265
306  294  266
306  266  278
306  278  57
306  57  58
307  295  267
307  267  279
308  268  280
308  296  268
309  297  269
309  269  281
310  298  270
310  270  282
311  299  271
311  271  283
312  300  272
312  272  284
313  1  2
313  2  3
313  301  1
314  274  286
314  302  274
315  303  275
315  275  287
316  304  276
316  276  288
317  277  289
317  305  277
318  307  279
318  279  290
319  308  280
319  280  291
320  309  281
320  281  292
321  282  293
321  310  282
322  283  294
322  311  283
323  312  284
323  284  295
324  285  296
324  42  41
324  41  52
324  52  285
325  314  286
325  286  297
326  287  298
326  315  287
327  288  299
327  316  288
328  289  300
328  317  289
329  290  301
329  318  290
330  291  302
330  319  291
331  292  303
331  320  292
332  293  305
332  321  293
333  294  306
333  322  294
333  58  59
333  306  58
334  323  295
334  295  307
335  324  296
335  296  308
336  297  309
336  325  297
337  298  310
337  326  298
338  299  311
338  327  299
339  300  312
339  328  300
340  329  301
340  313  3
340  301  313
341  302  314
341  330  302
342  331  303
342  303  315
343  36  304
343  304  316
344  332  305
344  305  317
345  334  307
345  307  318
346  335  308
346  308  319
347  336  309
347  309  320
348  337  310
348  310  321
349  311  322
349  338  311
350  339  312
350  312  323
351  42  324
352  341  314
352  314  325
353  342  315
353  315  326
354  343  316
354  316  327
355  317  328
355  344  317
356  318  329
356  345  318
357  346  319
357  319  330
358  320  331
358  347  320
359  348  321
359  321  332
360  322  333
360  349  322
361  350  323
361  323  334
362  324  335
362  351  324
363  352  325
363  325  336
364  326  337
364  353  326
365  354  327
365  327  338
366  355  328
366  328  339
367  329  340
367  356  329
368  330  341
368  357  330
369  331  342
369  358  331
370  37  36
370  38  37
370  36  343
371  332  344
371  359  332
372  333  59
372  360  333
372  59  60
372  60  360
373  334  345
373  361  334
374  335  346
374  362  335
375  336  347
375  363  336
376  364  337
376  337  348
377  365  338
377  338  349
378  366  339
378  339  350
379  43  42
379  42  351
380  3  4
380  4  5
380  340  3
380  367  340
381  368  341
381  341  352
382  342  353
382  369  342
383  370  343
383  343  354
384  371  344
384  344  355
385  373  345
385  345  356
386  374  346
386  346  357
387  375  347
387  347  358
388  348  359
388  376  348
389  377  349
389  349  360
389  360  60
390  378  350
390  350  361
391  379  351
391  351  362
392  381  352
392  352  363
393  353  364
393  382  353
394  383  354
394  354  365
395  384  355
395  355  366
396  356  367
396  385  356
397  386  357
397  357  368
398  358  369
398  387  358
399  359  371
399  388  359
400  389  60
400  60  61
400  61  62
400  62  389
401  361  373
401  390  361
402  362  374
402  391  362
403  363  375
403  392  363
404  393  364
404  364  376
405  365  377
405  394  365
406  366  378
406  395  366
407  396  367
407  380  5
407  367  380
408  368  381
408  397  368
409  398  369
409  369  382
410  370  383
410  38  370
411  399  371
411  371  384
412  373  385
412  401  373
413  402  374
413  374  386
414  375  387
414  403  375
415  404  376
415  376  388
416  64  405
416  377  389
416  389  62
416  405  377
417  406  378
417  378  390
418  44  43
418  45  44
418  379  391
418  43  379
419  408  381
419  381  392
420  409  382
420  382  393
421  383  394
421  410  383
422  384  395
422  411  384
423  385  396
423  412  385
424  386  397
424  413  386
425  414  387
425  387  398
426  388  399
426  415  388
427  64  416
427  62  63
427  416  62
427  63  64
428  390  401
428  417  390
429  45  418
429  418  391
429  391  402
430  392  403
430  419  392
431  420  393
431  393  404
432  394  405
432  421  394
433  422  395
433  395  406
434  396  407
434  423  396
435  397  408
435  424  397
436  425  398
436  398  409
437  39  38
437  40  39
437  38  410
438  426  399
438  399  411
439  401  412
439  428  401
440  402  413
440  429  402
441  430  403
441  403  414
442  404  415
442  431  404
443  66  432
443  405  64
443  64  65
443  65  66
443  432  405
444  433  406
444  406  417
445  46  45
446  5  6
446  6  7
446  434  407
446  407  5
447  408  419
447  435  408
448  436  409
448  409  420
449  437  410
449  410  421
450  438  411
450  411  422
451  439  412
451  412  423
452  440  413
452  413  424
453  441  414
453  414  425
454  442  415
454  415  426
455  417  428
455  444  417
456  47  46
456  46  445
456  445  45
456  45  429
457  447  419
457  419  430
458  420  431
458  448  420
459  449  421
459  421  432
460  450  422
460  422  433
461  423  434
461  451  423
462  424  435
462  452  424
463  425  436
463  453  425
464  454  426
464  426  438
465  455  428
465  428  439
466  429  440
466  456  429
467  430  441
467  457  430
468  431  442
468  458  431
469  432  66
469  459  432
469  68  67
469  66  68
470  433  444
470  460  433
471  446  7
471  434  446
471  461  434
472  462  435
472  435  447
473  463  436
473  436  448
474  437  449
474  21  40
474  40  437
475  464  438
475  438  450
476  465  439
476  439  451
477  466  440
477  440  452
478  441  453
478  467  441
479  442  454
479  468  442
480  470  444
480  444  455
481  48  47
482  472  447
482  447  457