VARIABLES = X Y Z
ZONE N =1120, E =2188, DATAPACKING = POINT, ZONETYPE = FETRIANGLE
1  20  6.5
1  20  6.5
1  20  -6.5
1.84842  20  -6.44439
2.68232  20  -6.27852
3.48744  20  -6.00522
4.25  20  -5.62917
4.95695  20  -5.1568
5.59619  20  -4.59619
6.1568  20  -3.95695
6.62917  20  -3.25
7.00522  20  -2.48744
7.27852  20  -1.68232
7.44439  20  -0.84842
7.5  20  -1.31384e-14
7.44439  20  0.84842
7.27852  20  1.68232
7.00522  20  2.48744
6.62917  20  3.25
6.1568  20  3.95695
5.59619  20  4.59619
4.95695  20  5.1568
4.25  20  5.62917
3.48744  20  6.00522
2.68232  20  6.27852
1.84842  20  6.44439
1  20  -6.5
1.84842  20  -6.44439
2.68232  20  -6.27852
3.48744  20  -6.00522
4.25  20  -5.62917
4.95695  20  -5.1568
5.59619  20  -4.59619
6.1568  20  -3.95695
6.62917  20  -3.25
7.00522  20  -2.48744
7.27852  20  -1.68232
7.44439  20  -0.84842
7.5  20  -1.31384e-14
7.44439  20  0.84842
7.27852  20  1.68232
7.00522  20  2.48744
6.62917  20  3.25
6.1568  20  3.95695
5.59619  20  4.59619
4.95695  20  5.1568
4.25  20  5.62917
3.48744  20  6.00522
2.68232  20  6.27852
1.84842  20  6.44439
1.84653  20.0567  -6.44439
1.83142  20.169  -6.44439
1.80148  20.2783  -6.44439
1.75723  20.3826  -6.44439
2.66731  20.2242  -6.27852
1.69947  20.4802  -6.44439
2.62255  20.4445  -6.27852
1.62923  20.5691  -6.44439
2.54883  20.6568  -6.27852
3.48189  20.1661  -6.00522
1.54776  20.6479  -6.44439
2.44747  20.8573  -6.27852
3.4376  20.4955  -6.00522
1.45652  20.7151  -6.44439
2.32029  21.0426  -6.27852
3.34981  20.8159  -6.00522
1.35713  20.7696  -6.44439
2.16954  21.2093  -6.27852
3.22009  21.1219  -6.00522
1.25137  20.8103  -6.44439
4.221  20.4332  -5.62917
1.99792  21.3544  -6.27852
3.05075  21.4078  -6.00522
1.14112  20.8366  -6.44439
4.13452  20.8586  -5.62917
1.80849  21.4753  -6.27852
2.84482  21.6685  -6.00522
1.02835  20.8479  -6.44439
3.99211  21.2688  -5.62917
1.60464  21.5699  -6.27852
4.94811  20.2643  -5.1568
2.60596  21.8995  -6.00522
0.915077  20.8442  -6.44439
3.79631  21.6563  -5.62917
1.39  21.6365  -6.27852
4.87766  20.7882  -5.1568
2.33845  22.0966  -6.00522
0.803319  20.8253  -6.44439
3.5506  22.0142  -5.62917
1.16839  21.6739  -6.27852
4.73801  21.298  -5.1568
2.04705  22.2563  -6.00522
0.695071  20.7917  -6.44439
3.25938  22.3362  -5.62917
0.943785  21.6814  -6.27852
4.53165  21.7846  -5.1568
1.73697  22.3758  -6.00522
0.592265  20.744  -6.44439
5.55518  20.6126  -4.59619
2.92783  22.6165  -5.62917
0.72018  21.6589  -6.27852
4.26227  22.2394  -5.1568
1.41373  22.4528  -6.00522
0.496734  20.683  -6.44439
5.43289  21.2143  -4.59619
2.56189  22.8501  -5.62917
0.501569  21.6068  -6.27852
3.93468  22.6543  -5.1568
1.08312  22.4861  -6.00522
0.410185  20.6099  -6.44439
5.23149  21.7943  -4.59619
2.16808  23.0328  -5.62917
0.291851  21.526  -6.27852
6.14528  20.3444  -3.95695
3.55472  23.0217  -5.1568
0.751018  22.4749  -6.00522
0.33416  20.5258  -6.44439
4.95457  22.3423  -4.59619
1.75342  23.1615  -5.62917
0.0947713  21.418  -6.27852
6.05346  21.0272  -3.95695
3.12916  23.3353  -5.1568
0.423361  22.4197  -6.00522
0.270018  20.4324  -6.44439
4.60709  22.8485  -4.59619
1.32531  23.2337  -5.62917
-0.0861551  21.2847  -6.27852
5.87147  21.6916  -3.95695
2.66562  23.5893  -5.1568
0.105994  22.3212  -6.00522
0.218902  20.3312  -6.44439
4.19524  23.3039  -4.59619
0.891401  23.2482  -5.62917
-0.247699  21.1285  -6.27852
5.60254  22.3258  -3.95695
2.17235  23.7793  -5.1568
-0.195419  22.1814  -6.00522
0.181725  20.2241  -6.44439
6.57894  20.7503  -3.25
3.72637  23.7003  -4.59619
0.45943  23.2047  -5.62917
-0.386978  20.9521  -6.27852
5.25148  22.9185  -3.95695
1.65816  23.9018  -5.1568
-0.4755  22.0026  -6.00522
0.15915  20.1131  -6.44439
6.42916  21.4872  -3.25
3.20885  24.0306  -4.59619
0.0371044  23.1041  -5.62917
-0.501506  20.7587  -6.27852
4.82455  23.4591  -3.95695
1.13222  23.9547  -5.1568
-0.729251  21.788  -6.00522
0.15158  20  -6.44439
6.18249  22.1976  -3.25
2.65191  24.2891  -4.59619
-0.368038  22.948  -5.62917
-0.589239  20.5518  -6.27852
6.99181  20.4011  -2.48744
4.32937  23.938  -3.95695
0.603926  23.9371  -5.1568
-0.952143  21.5416  -6.00522
0.15915  19.8869  -6.44439
5.84334  22.8687  -3.25
2.06549  24.471  -4.59619
-0.748768  22.7394  -5.62917
-0.648613  20.3351  -6.27852
6.88488  21.1962  -2.48744
3.77478  24.3466  -3.95695
0.0826994  23.8492  -5.1568
-1.1402  21.2676  -6.00522
0.181725  19.7759  -6.44439
5.41777  23.4887  -3.25
1.46006  24.5731  -4.59619
-1.09829  22.4819  -5.62917
-0.678567  20.1124  -6.27852
6.67294  21.9699  -2.48744
3.17067  24.6777  -3.95695
-0.422158  23.6925  -5.1568
-1.29006  20.9711  -6.00522
0.218902  19.6688  -6.44439
4.91335  24.0464  -3.25
0.846418  24.5936  -4.59619
-1.41037  22.1801  -5.62917
-0.678567  19.8876  -6.27852
6.35977  22.7084  -2.48744
2.52783  24.9253  -3.95695
-0.901638  23.47  -5.1568
-1.39906  20.6572  -6.00522
0.270018  19.5676  -6.44439
7.2225  20.8368  -1.68232
4.33911  24.5319  -3.25
0.235518  24.5322  -4.59619
-1.67944  21.8393  -5.62917
-0.648613  19.6649  -6.27852
5.95095  23.3986  -2.48744
1.85773  25.085  -3.95695
-1.34718  23.1856  -5.1568
-1.46525  20.3315  -6.00522
0.33416  19.4742  -6.44439
7.05544  21.6588  -1.68232
3.70527  24.9365  -3.25
-0.36174  24.3898  -4.59619
-1.90069  21.4658  -5.62917
-0.589239  19.4482  -6.27852
5.45378  24.0282  -2.48744
1.17231  25.1539  -3.95695
-1.75084  22.8443  -5.1568
-1.48744  20  -6.00522
0.410185  19.3901  -6.44439
6.78032  22.4511  -1.68232
3.02317  25.253  -3.25
-0.934698  24.1692  -4.59619
-2.07017  21.0661  -5.62917
-0.501506  19.2413  -6.27852
7.43  20.4304  -0.84842
4.87714  24.5859  -2.48744
0.483827  25.1309  -3.95695
-2.10541  22.4523  -5.1568
-1.46525  19.6685  -6.00522
0.496734  19.317  -6.44439
6.40205  23.1996  -1.68232
2.30495  25.4758  -3.25
-1.47313  23.8741  -4.59619
-2.18488  20.6474  -5.62917
-0.386978  19.0479  -6.27852
7.31526  21.2836  -0.84842
4.2313  25.0618  -2.48744
-0.195449  25.0163  -3.95695
-2.40457  22.0165  -5.1568
-1.39906  19.3428  -6.00522
0.592265  19.256  -6.44439
5.92738  23.8911  -1.68232
1.56346  25.6009  -3.25
-1.96743  23.5099  -4.59619
-2.24274  20.2171  -5.62917
-0.247699  18.8715  -6.27852
7.08782  22.1139  -0.84842
3.5278  25.4473  -2.48744
-0.853393  24.8122  -3.95695
-2.64296  21.5448  -5.1568
-1.29006  19.0289  -6.00522
0.695071  19.2083  -6.44439
5.36478  24.5131  -1.68232
0.811902  25.626  -3.25
-2.40878  23.0831  -4.59619
-2.24274  19.7829  -5.62917
-0.0861551  18.7153  -6.27852
6.75174  22.9065  -0.84842
2.7792  25.7356  -2.48744
-1.47826  24.5223  -3.95695
-2.81636  21.0454  -5.1568
-1.1402  18.7324  -6.00522
7.442  20.8664  3.60822e-16
0.803319  19.1747  -6.44439
4.72429  25.0546  -1.68232
0.0637046  25.5508  -3.25
-2.78929  22.6012  -4.59619
-2.18488  19.3526  -5.62917
0.0947713  18.582  -6.27852
6.31302  23.6472  -0.84842
1.99884  25.9216  -2.48744
-2.05891  24.1516  -3.95695
-2.92164  20.5274  -5.1568
-0.952143  18.4584  -6.00522
7.26905  21.7173  3.60822e-16
0.915077  19.1558  -6.44439
4.01734  25.5059  -1.68232
-0.667784  25.3764  -3.25
-3.10219  22.0729  -4.59619
-2.07017  18.9339  -5.62917
0.291851  18.474  -6.27852
5.7795  24.3228  -0.84842
1.20066  26.0019  -2.48744
-2.58497  23.7068  -3.95695
-2.95695  20  -5.1568
-0.729251  18.212  -6.00522
6.98422  22.5375  3.60822e-16
1.02835  19.1521  -6.44439
3.25655  25.859  -1.68232
-1.36951  25.1062  -3.25
-3.34188  21.5077  -4.59619
-1.90069  18.5342  -5.62917
7.43  20.4304  0.84842
0.501569  18.3932  -6.27852
5.16068  24.9213  -0.84842
0.398904  25.9751  -2.48744
-3.04705  23.1959  -3.95695
-2.92164  19.4726  -5.1568
-0.4755  17.9974  -6.00522
6.59261  23.3125  3.60822e-16
1.14112  19.1634  -6.44439
2.45549  26.1075  -1.68232
-2.02895  24.7448  -3.25
-3.50409  20.9155  -4.59619
-1.67944  18.1607  -5.62917
7.31526  21.2836  0.84842
0.72018  18.3411  -6.27852
4.46761  25.4319  -0.84842
-0.39213  25.8416  -2.48744
-3.43692  22.628  -3.95695
-2.81636  18.9546  -5.1568
-0.195419  17.8186  -6.00522
6.1012  24.0284  3.60822e-16
1.25137  19.1897  -6.44439
1.62845  26.247  -1.68232
-2.63435  24.2987  -3.25
-3.58593  20.307  -4.59619
-1.41037  17.8199  -5.62917
7.08782  22.1139  0.84842
0.943785  18.3186  -6.27852
3.71267  25.8456  -0.84842
-1.15832  25.604  -2.48744
-3.7476  22.0132  -3.95695
-2.64296  18.4552  -5.1568
0.105994  17.6788  -6.00522
5.51875  24.6724  3.60822e-16
1.35713  19.2304  -6.44439
0.790203  26.275  -1.68232
-3.17488  23.776  -3.25
-3.58593  19.693  -4.59619
-1.09829  17.5181  -5.62917
6.75174  22.9065  0.84842
1.16839  18.3261  -6.27852
2.90932  26.1551  -0.84842
-1.886  25.2663  -2.48744
-3.97357  21.3624  -3.95695
-2.40457  17.9835  -5.1568
7.2225  20.8368  1.68232
0.423361  17.5803  -6.00522
4.85567  25.233  3.60822e-16
1.45652  19.2849  -6.44439
-0.0443018  26.1911  -1.68232
-3.64092  23.1858  -3.25
-3.50409  19.0845  -4.59619
-0.748768  17.2606  -5.62917
6.31302  23.6472  0.84842
1.39  18.3635  -6.27852
2.07189  26.3546  -0.84842
-2.56217  24.8346  -2.48744
-4.11079  20.6873  -3.95695
-2.10541  17.5477  -5.1568
7.05544  21.6588  1.68232
0.751018  17.5251  -6.00522
4.12378  25.7002  3.60822e-16
1.54776  19.3521  -6.44439
-0.860172  25.9966  -1.68232
-4.02414  22.5388  -3.25
-3.34188  18.4923  -4.59619
-0.368038  17.052  -5.62917
5.7795  24.3228  0.84842
1.60464  18.4301  -6.27852
1.21534  26.4408  -0.84842
-3.17478  24.3167  -2.48744
-4.1568  20  -3.95695
-1.75084  17.1557  -5.1568
6.78032  22.4511  1.68232
1.08312  17.5139  -6.00522
3.33615  26.0657  3.60822e-16
1.62923  19.4309  -6.44439
-1.64285  25.6952  -1.68232
-4.3177  21.8465  -3.25
-3.10219  17.9271  -4.59619
6.99181  20.4011  2.48744
0.0371044  16.8959  -5.62917
5.16068  24.9213  0.84842
1.80849  18.5247  -6.27852
0.354944  26.412  -0.84842
-3.71289  23.7217  -2.48744
-4.11079  19.3127  -3.95695
-1.34718  16.8144  -5.1568
6.40205  23.1996  1.68232
1.41373  17.5472  -6.00522
2.50683  26.3229  3.60822e-16
1.69947  19.5198  -6.44439
-2.37836  25.2921  -1.68232
-4.51637  21.1213  -3.25
-2.78929  17.3988  -4.59619
6.88488  21.1962  2.48744
0.45943  16.7953  -5.62917
4.46761  25.4319  0.84842
1.99792  18.6456  -6.27852
-0.49394  26.2688  -0.84842
-4.1669  23.0604  -2.48744
-3.97357  18.6376  -3.95695
-0.901638  16.53  -5.1568
5.92738  23.8911  1.68232
1.73697  17.6242  -6.00522
1.65062  26.4674  3.60822e-16
1.75723  19.6174  -6.44439
-3.05359  24.7946  -1.68232
-4.61659  20.376  -3.25
-2.40878  16.9169  -4.59619
6.67294  21.9699  2.48744
0.891401  16.7518  -5.62917
3.71267  25.8456  0.84842
2.16954  18.7907  -6.27852
-1.31616  26.0138  -0.84842
-4.5287  22.3444  -2.48744
-3.7476  17.9868  -3.95695
-0.422158  16.3075  -5.1568
5.36478  24.5131  1.68232
2.04705  17.7437  -6.00522
0.782803  26.4964  3.60822e-16
1.80148  19.7217  -6.44439
-3.65648  24.2115  -1.68232
-4.61659  19.624  -3.25
-1.96743  16.4901  -4.59619
6.35977  22.7084  2.48744
1.32531  16.7663  -5.62917
2.90932  26.1551  0.84842
2.32029  18.9574  -6.27852
-2.09706  25.6514  -0.84842
-4.79185  21.5866  -2.48744
-3.43692  17.372  -3.95695
6.57894  20.7503  3.25
0.0826994  16.1508  -5.1568
4.72429  25.0546  1.68232
2.33845  17.9034  -6.00522
-0.0811408  26.4095  3.60822e-16
1.83142  19.831  -6.44439
-4.17627  23.5533  -1.68232
-4.51637  18.8787  -3.25
-1.47313  16.1259  -4.59619
5.95095  23.3986  2.48744
1.75342  16.8385  -5.62917
2.07189  26.3546  0.84842
2.44747  19.1427  -6.27852
-2.82268  25.1882  -0.84842
-4.95164  20.8004  -2.48744
-3.04705  16.8041  -3.95695
6.42916  21.4872  3.25
0.603926  16.0629  -5.1568
4.01734  25.5059  1.68232
2.60596  18.1005  -6.00522
-0.925791  26.2082  3.60822e-16
1.84653  19.9433  -6.44439
-4.6037  22.8317  -1.68232
-4.3177  18.1535  -3.25
-0.934698  15.8308  -4.59619
5.45378  24.0282  2.48744
2.16808  16.9672  -5.62917
1.21534  26.4408  0.84842
2.54883  19.3432  -6.27852
-3.48009  24.6324  -0.84842
-5.00522  20  -2.48744
-2.58497  16.2932  -3.95695
6.18249  22.1976  3.25
1.13222  16.0453  -5.1568
3.25655  25.859  1.68232
2.84482  18.3315  -6.00522
-1.73608  25.8961  3.60822e-16
-4.93112  22.0595  -1.68232
-4.02414  17.4612  -3.25
6.14528  20.3444  3.95695
-0.36174  15.6102  -4.59619
4.87714  24.5859  2.48744
2.56189  17.1499  -5.62917
0.354944  26.412  0.84842
2.62255  19.5555  -6.27852
-4.05755  23.9939  -0.84842
-4.95164  19.1996  -2.48744
-2.05891  15.8484  -3.95695
5.84334  22.8687  3.25
1.65816  16.0982  -5.1568
2.45549  26.1075  1.68232
3.05075  18.5922  -6.00522
-2.49754  25.4788  3.60822e-16
-5.15271  21.2506  -1.68232
-3.64092  16.8142  -3.25
6.05346  21.0272  3.95695
0.235518  15.4678  -4.59619
4.2313  25.0618  2.48744
2.92783  17.3835  -5.62917
-0.49394  26.2688  0.84842
2.66731  19.7758  -6.27852
-4.54476  23.2842  -0.84842
-4.79185  18.4134  -2.48744
-1.47826  15.4777  -3.95695
5.41777  23.4887  3.25
2.17235  16.2207  -5.1568
1.62845  26.247  1.68232
3.22009  18.8781  -6.00522
-3.19658  24.9637  3.60822e-16
-5.2645  20.4194  -1.68232
-3.17488  16.224  -3.25
5.87147  21.6916  3.95695
0.846418  15.4064  -4.59619
3.5278  25.4473  2.48744
3.25938  17.6638  -5.62917
-1.31616  26.0138  0.84842
-4.93303  22.5158  -0.84842
-4.5287  17.6556  -2.48744
-0.853393  15.1878  -3.95695
4.91335  24.0464  3.25
2.66562  16.4107  -5.1568
0.790203  26.275  1.68232
3.34981  19.1841  -6.00522
-3.82074  24.3601  3.60822e-16
-5.2645  19.5806  -1.68232
-2.63435  15.7013  -3.25
5.60254  22.3258  3.95695
1.46006  15.4269  -4.59619
2.7792  25.7356  2.48744
3.5506  17.9858  -5.62917
-2.09706  25.6514  0.84842
-5.21542  21.7026  -0.84842
-4.1669  16.9396  -2.48744
5.55518  20.6126  4.59619
-0.195449  14.9837  -3.95695
4.33911  24.5319  3.25
3.12916  16.6647  -5.1568
-0.0443018  26.1911  1.68232
3.4376  19.5045  -6.00522
-4.35887  23.6787  3.60822e-16
-5.15271  18.7494  -1.68232
-2.02895  15.2552  -3.25
5.25148  22.9185  3.95695
2.06549  15.529  -4.59619
1.99884  25.9216  2.48744
3.79631  18.3437  -5.62917
-2.82268  25.1882  0.84842
-5.38689  20.859  -0.84842
-3.71289  16.2783  -2.48744
5.43289  21.2143  4.59619
0.483827  14.8691  -3.95695
3.70527  24.9365  3.25
3.55472  16.9783  -5.1568
-0.860172  25.9966  1.68232
3.48189  19.8339  -6.00522
-4.80137  22.9316  3.60822e-16
-4.93112  17.9405  -1.68232
-1.36951  14.8938  -3.25
4.82455  23.4591  3.95695
2.65191  15.7109  -4.59619
1.20066  26.0019  2.48744
3.99211  18.7312  -5.62917
-3.48009  24.6324  0.84842
-5.44439  20  -0.84842
-3.17478  15.6833  -2.48744
5.23149  21.7943  4.59619
1.17231  14.8461  -3.95695
3.02317  25.253  3.25
3.93468  17.3457  -5.1568
-1.64285  25.6952  1.68232
-5.14035  22.1322  3.60822e-16
-4.6037  17.1683  -1.68232
4.94811  20.2643  5.1568
-0.667784  14.6236  -3.25
4.32937  23.938  3.95695
3.20885  15.9694  -4.59619
0.398904  25.9751  2.48744
4.13452  19.1414  -5.62917
-4.05755  23.9939  0.84842
-5.38689  19.141  -0.84842
-2.56217  15.1654  -2.48744
4.95457  22.3423  4.59619
1.85773  14.915  -3.95695
2.30495  25.4758  3.25
4.26227  17.7606  -5.1568
-2.37836  25.2921  1.68232
-5.36975  21.2947  3.60822e-16
-4.17627  16.4467  -1.68232
4.87766  20.7882  5.1568
0.0637046  14.4492  -3.25
3.77478  24.3466  3.95695
3.72637  16.2997  -4.59619
-0.39213  25.8416  2.48744
4.221  19.5668  -5.62917
-4.54476  23.2842  0.84842
-5.21542  18.2974  -0.84842
-1.886  14.7337  -2.48744
4.60709  22.8485  4.59619
2.52783  15.0747  -3.95695
1.56346  25.6009  3.25
4.53165  18.2154  -5.1568
-3.05359  24.7946  1.68232
-5.48548  20.4342  3.60822e-16
-3.65648  15.7885  -1.68232
4.73801  21.298  5.1568
0.811902  14.374  -3.25
3.17067  24.6777  3.95695
4.19524  16.6961  -4.59619
-1.15832  25.604  2.48744
-4.93303  22.5158  0.84842
-4.93303  17.4842  -0.84842
-1.15832  14.396  -2.48744
4.19524  23.3039  4.59619
3.17067  15.3223  -3.95695
0.811902  25.626  3.25
4.73801  18.702  -5.1568
-3.65648  24.2115  1.68232
-5.48548  19.5658  3.60822e-16
-3.05359  15.2054  -1.68232
4.53165  21.7846  5.1568
1.56346  14.3991  -3.25
2.52783  24.9253  3.95695
4.60709  17.1515  -4.59619
-1.886  25.2663  2.48744
-5.21542  21.7026  0.84842
-4.54476  16.7158  -0.84842
4.221  20.4332  5.62917
-0.39213  14.1584  -2.48744
3.72637  23.7003  4.59619
3.77478  15.6534  -3.95695
0.0637046  25.5508  3.25
4.87766  19.2118  -5.1568
-4.17627  23.5533  1.68232
-5.36975  18.7053  3.60822e-16
-2.37836  14.7079  -1.68232
4.26227  22.2394  5.1568
2.30495  14.5242  -3.25
1.85773  25.085  3.95695
4.95457  17.6577  -4.59619
-2.56217  24.8346  2.48744
-5.38689  20.859  0.84842
-4.05755  16.0061  -0.84842
4.13452  20.8586  5.62917
0.398904  14.0249  -2.48744
3.20885  24.0306  4.59619
4.32937  16.062  -3.95695
-0.667784  25.3764  3.25
4.94811  19.7357  -5.1568
-4.6037  22.8317  1.68232
-5.14035  17.8678  3.60822e-16
-1.64285  14.3048  -1.68232
3.93468  22.6543  5.1568
3.02317  14.747  -3.25
1.17231  25.1539  3.95695
5.23149  18.2057  -4.59619
-3.17478  24.3167  2.48744
-5.44439  20  0.84842
-3.48009  15.3676  -0.84842
3.99211  21.2688  5.62917
1.20066  13.9981  -2.48744
2.65191  24.2891  4.59619
4.82455  16.5409  -3.95695
-1.36951  25.1062  3.25
-4.93112  22.0595  1.68232
-4.80137  17.0684  3.60822e-16
3.48189  20.1661  6.00522
-0.860172  14.0034  -1.68232
3.55472  23.0217  5.1568
3.70527  15.0635  -3.25
0.483827  25.1309  3.95695
5.43289  18.7857  -4.59619
-3.71289  23.7217  2.48744
-5.38689  19.141  0.84842
-2.82268  14.8118  -0.84842
3.79631  21.6563  5.62917
1.99884  14.0784  -2.48744
2.06549  24.471  4.59619
5.25148  17.0815  -3.95695
-2.02895  24.7448  3.25
-5.15271  21.2506  1.68232
-4.35887  16.3213  3.60822e-16
3.4376  20.4955  6.00522
-0.0443018  13.8089  -1.68232
3.12916  23.3353  5.1568
4.33911  15.4681  -3.25
-0.195449  25.0163  3.95695
5.55518  19.3874  -4.59619
-4.1669  23.0604  2.48744
-5.21542  18.2974  0.84842
-2.09706  14.3486  -0.84842
3.5506  22.0142  5.62917
2.7792  14.2644  -2.48744
1.46006  24.5731  4.59619
5.60254  17.6742  -3.95695
-2.63435  24.2987  3.25
-5.2645  20.4194  1.68232
-3.82074  15.6399  3.60822e-16
3.34981  20.8159  6.00522
0.790203  13.725  -1.68232
2.66562  23.5893  5.1568
4.91335  15.9536  -3.25
-0.853393  24.8122  3.95695
-4.5287  22.3444  2.48744
-4.93303  17.4842  0.84842
-1.31616  13.9862  -0.84842
3.25938  22.3362  5.62917
3.5278  14.5527  -2.48744
0.846418  24.5936  4.59619
5.87147  18.3084  -3.95695
-3.17488  23.776  3.25
-5.2645  19.5806  1.68232
-3.19658  15.0363  3.60822e-16
3.22009  21.1219  6.00522
1.62845  13.753  -1.68232
2.17235  23.7793  5.1568
5.41777  16.5113  -3.25
-1.47826  24.5223  3.95695
-4.79185  21.5866  2.48744
-4.54476  16.7158  0.84842
2.66731  20.2242  6.27852
-0.49394  13.7312  -0.84842
2.92783  22.6165  5.62917
4.2313  14.9382  -2.48744
0.235518  24.5322  4.59619
6.05346  18.9728  -3.95695
-3.64092  23.1858  3.25
-5.15271  18.7494  1.68232
-2.49754  14.5212  3.60822e-16
3.05075  21.4078  6.00522
2.45549  13.8925  -1.68232
1.65816  23.9018  5.1568
5.84334  17.1313  -3.25
-2.05891  24.1516  3.95695
-4.95164  20.8004  2.48744
-4.05755  16.0061  0.84842
2.62255  20.4445  6.27852
0.354944  13.588  -0.84842
2.56189  22.8501  5.62917
4.87714  15.4141  -2.48744
-0.36174  24.3898  4.59619
6.14528  19.6556  -3.95695
-4.02414  22.5388  3.25
-4.93112  17.9405  1.68232
-1.73608  14.1039  3.60822e-16
2.84482  21.6685  6.00522
3.25655  14.141  -1.68232
1.13222  23.9547  5.1568
6.18249  17.8024  -3.25
-2.58497  23.7068  3.95695
-5.00522  20  2.48744
-3.48009  15.3676  0.84842
2.54883  20.6568  6.27852
1.21534  13.5592  -0.84842
2.16808  23.0328  5.62917
5.45378  15.9718  -2.48744
-0.934698  24.1692  4.59619
-4.3177  21.8465  3.25
-4.6037  17.1683  1.68232
1.84653  20.0567  6.44439
-0.925791  13.7918  3.60822e-16
2.60596  21.8995  6.00522
4.01734  14.4941  -1.68232
0.603926  23.9371  5.1568
6.42916  18.5128  -3.25
-3.04705  23.1959  3.95695
-4.95164  19.1996  2.48744
-2.82268  14.8118  0.84842
2.44747  20.8573  6.27852
2.07189  13.6454  -0.84842
1.75342  23.1615  5.62917
5.95095  16.6014  -2.48744
-1.47313  23.8741  4.59619
-4.51637  21.1213  3.25
-4.17627  16.4467  1.68232
1.83142  20.169  6.44439
-0.0811408  13.5905  3.60822e-16
2.33845  22.0966  6.00522
4.72429  14.9454  -1.68232
0.0826994  23.8492  5.1568
6.57894  19.2497  -3.25
-3.43692  22.628  3.95695
-4.79185  18.4134  2.48744
-2.09706  14.3486  0.84842
2.32029  21.0426  6.27852
2.90932  13.8449  -0.84842
1.32531  23.2337  5.62917
6.35977  17.2916  -2.48744
-1.96743  23.5099  4.59619
-4.61659  20.376  3.25
-3.65648  15.7885  1.68232
1.80148  20.2783  6.44439
0.782803  13.5036  3.60822e-16
2.04705  22.2563  6.00522
5.36478  15.4869  -1.68232
-0.422158  23.6925  5.1568
-3.7476  22.0132  3.95695
-4.5287  17.6556  2.48744
-1.31616  13.9862  0.84842
2.16954  21.2093  6.27852
3.71267  14.1544  -0.84842
0.891401  23.2482  5.62917
6.67294  18.0301  -2.48744
-2.40878  23.0831  4.59619
-4.61659  19.624  3.25
-3.05359  15.2054  1.68232
1.75723  20.3826  6.44439
1.65062  13.5326  3.60822e-16
1.73697  22.3758  6.00522
5.92738  16.1089  -1.68232
-0.901638  23.47  5.1568
-3.97357  21.3624  3.95695
-4.1669  16.9396  2.48744
-0.49394  13.7312  0.84842
1.99792  21.3544  6.27852
4.46761  14.5681  -0.84842
0.45943  23.2047  5.62917
6.88488  18.8038  -2.48744
-2.78929  22.6012  4.59619
-4.51637  18.8787  3.25
-2.37836  14.7079  1.68232
1.69947  20.4802  6.44439
2.50683  13.6771  3.60822e-16
1.41373  22.4528  6.00522
6.40205  16.8004  -1.68232
-1.34718  23.1856  5.1568
-4.11079  20.6873  3.95695
-3.71289  16.2783  2.48744
0.354944  13.588  0.84842
1.80849  21.4753  6.27852
5.16068  15.0787  -0.84842
0.0371044  23.1041  5.62917
6.99181  19.5989  -2.48744
-3.10219  22.0729  4.59619
-4.3177  18.1535  3.25
-1.64285  14.3048  1.68232
1.62923  20.5691  6.44439
3.33615  13.9343  3.60822e-16
1.08312  22.4861  6.00522
6.78032  17.5489  -1.68232
-1.75084  22.8443  5.1568
-4.1568  20  3.95695
-3.17478  15.6833  2.48744
1.21534  13.5592  0.84842
1.60464  21.5699  6.27852
5.7795  15.6772  -0.84842
-0.368038  22.948  5.62917
-3.34188  21.5077  4.59619
-4.02414  17.4612  3.25
-0.860172  14.0034  1.68232
1.54776  20.6479  6.44439
4.12378  14.2998  3.60822e-16
0.751018  22.4749  6.00522
7.05544  18.3412  -1.68232
-2.10541  22.4523  5.1568
-4.11079  19.3127  3.95695
-2.56217  15.1654  2.48744
2.07189  13.6454  0.84842
1.39  21.6365  6.27852
6.31302  16.3528  -0.84842
-0.748768  22.7394  5.62917
-3.50409  20.9155  4.59619
-3.64092  16.8142  3.25
-0.0443018  13.8089  1.68232
1.45652  20.7151  6.44439
4.85567  14.767  3.60822e-16
0.423361  22.4197  6.00522
7.2225  19.1632  -1.68232
-2.40457  22.0165  5.1568
-3.97357  18.6376  3.95695
-1.886  14.7337  2.48744
2.90932  13.8449  0.84842
1.16839  21.6739  6.27852
6.75174  17.0935  -0.84842
-1.09829  22.4819  5.62917
-3.58593  20.307  4.59619
-3.17488  16.224  3.25
0.790203  13.725  1.68232
1.35713  20.7696  6.44439
5.51875  15.3276  3.60822e-16
0.105994  22.3212  6.00522
-2.64296  21.5448  5.1568
-3.7476  17.9868  3.95695
-1.15832  14.396  2.48744
3.71267  14.1544  0.84842
0.943785  21.6814  6.27852
7.08782  17.8861  -0.84842
-1.41037  22.1801  5.62917
-3.58593  19.693  4.59619
-2.63435  15.7013  3.25
1.62845  13.753  1.68232
1.25137  20.8103  6.44439
6.1012  15.9716  3.60822e-16
-0.195419  22.1814  6.00522
-2.81636  21.0454  5.1568
-3.43692  17.372  3.95695
-0.39213  14.1584  2.48744
4.46761  14.5681  0.84842
0.72018  21.6589  6.27852
7.31526  18.7164  -0.84842
-1.67944  21.8393  5.62917
-3.50409  19.0845  4.59619
-2.02895  15.2552  3.25
2.45549  13.8925  1.68232
1.14112  20.8366  6.44439
6.59261  16.6875  3.60822e-16
-0.4755  22.0026  6.00522
-2.92164  20.5274  5.1568
-3.04705  16.8041  3.95695
0.398904  14.0249  2.48744
5.16068  15.0787  0.84842
0.501569  21.6068  6.27852
7.43  19.5696  -0.84842
-1.90069  21.4658  5.62917
-3.34188  18.4923  4.59619
-1.36951  14.8938  3.25
3.25655  14.141  1.68232
1.02835  20.8479  6.44439
6.98422  17.4625  3.60822e-16
-0.729251  21.788  6.00522
-2.95695  20  5.1568
-2.58497  16.2932  3.95695
1.20066  13.9981  2.48744
5.7795  15.6772  0.84842
0.291851  21.526  6.27852
-2.07017  21.0661  5.62917
-3.10219  17.9271  4.59619
-0.667784  14.6236  3.25
4.01734  14.4941  1.68232
0.915077  20.8442  6.44439
7.26905  18.2827  3.60822e-16
-0.952143  21.5416  6.00522
-2.92164  19.4726  5.1568
-2.05891  15.8484  3.95695
1.99884  14.0784  2.48744
6.31302  16.3528  0.84842
0.0947713  21.418  6.27852
-2.18488  20.6474  5.62917
-2.78929  17.3988  4.59619
0.0637046  14.4492  3.25
4.72429  14.9454  1.68232
0.803319  20.8253  6.44439
7.442  19.1336  3.60822e-16
-1.1402  21.2676  6.00522
-2.81636  18.9546  5.1568
-1.47826  15.4777  3.95695
2.7792  14.2644  2.48744
6.75174  17.0935  0.84842
-0.0861551  21.2847  6.27852
-2.24274  20.2171  5.62917
-2.40878  16.9169  4.59619
0.811902  14.374  3.25
5.36478  15.4869  1.68232
0.695071  20.7917  6.44439
-1.29006  20.9711  6.00522
-2.64296  18.4552  5.1568
-0.853393  15.1878  3.95695
3.5278  14.5527  2.48744
7.08782  17.8861  0.84842
-0.247699  21.1285  6.27852
-2.24274  19.7829  5.62917
-1.96743  16.4901  4.59619
1.56346  14.3991  3.25
5.92738  16.1089  1.68232
0.592265  20.744  6.44439
-1.39906  20.6572  6.00522
-2.40457  17.9835  5.1568
-0.195449  14.9837  3.95695
4.2313  14.9382  2.48744
7.31526  18.7164  0.84842
-0.386978  20.9521  6.27852
-2.18488  19.3526  5.62917
-1.47313  16.1259  4.59619
2.30495  14.5242  3.25
6.40205  16.8004  1.68232
0.496734  20.683  6.44439
-1.46525  20.3315  6.00522
-2.10541  17.5477  5.1568
0.483827  14.8691  3.95695
4.87714  15.4141  2.48744
7.43  19.5696  0.84842
-0.501506  20.7587  6.27852
-2.07017  18.9339  5.62917
-0.934698  15.8308  4.59619
3.02317  14.747  3.25
6.78032  17.5489  1.68232
0.410185  20.6099  6.44439
-1.48744  20  6.00522
-1.75084  17.1557  5.1568
1.17231  14.8461  3.95695
5.45378  15.9718  2.48744
-0.589239  20.5518  6.27852
-1.90069  18.5342  5.62917
-0.36174  15.6102  4.59619
3.70527  15.0635  3.25
7.05544  18.3412  1.68232
0.33416  20.5258  6.44439
-1.46525  19.6685  6.00522
-1.34718  16.8144  5.1568
1.85773  14.915  3.95695
5.95095  16.6014  2.48744
-0.648613  20.3351  6.27852
-1.67944  18.1607  5.62917
0.235518  15.4678  4.59619
4.33911  15.4681  3.25
7.2225  19.1632  1.68232
0.270018  20.4324  6.44439
-1.39906  19.3428  6.00522
-0.901638  16.53  5.1568
2.52783  15.0747  3.95695
6.35977  17.2916  2.48744
-0.678567  20.1124  6.27852
-1.41037  17.8199  5.62917
0.846418  15.4064  4.59619
4.91335  15.9536  3.25
0.218902  20.3312  6.44439
-1.29006  19.0289  6.00522
-0.422158  16.3075  5.1568
3.17067  15.3223  3.95695
6.67294  18.0301  2.48744
-0.678567  19.8876  6.27852
-1.09829  17.5181  5.62917
1.46006  15.4269  4.59619
5.41777  16.5113  3.25
0.181725  20.2241  6.44439
-1.1402  18.7324  6.00522
0.0826994  16.1508  5.1568
3.77478  15.6534  3.95695
6.88488  18.8038  2.48744
-0.648613  19.6649  6.27852
-0.748768  17.2606  5.62917
2.06549  15.529  4.59619
5.84334  17.1313  3.25
0.15915  20.1131  6.44439
-0.952143  18.4584  6.00522
0.603926  16.0629  5.1568
4.32937  16.062  3.95695
6.99181  19.5989  2.48744
-0.589239  19.4482  6.27852
-0.368038  17.052  5.62917
2.65191  15.7109  4.59619
6.18249  17.8024  3.25
0.15158  20  6.44439
-0.729251  18.212  6.00522
1.13222  16.0453  5.1568
4.82455  16.5409  3.95695
-0.501506  19.2413  6.27852
0.0371044  16.8959  5.62917
3.20885  15.9694  4.59619
6.42916  18.5128  3.25
0.15915  19.8869  6.44439
-0.4755  17.9974  6.00522
1.65816  16.0982  5.1568
5.25148  17.0815  3.95695
-0.386978  19.0479  6.27852
0.45943  16.7953  5.62917
3.72637  16.2997  4.59619
6.57894  19.2497  3.25
0.181725  19.7759  6.44439
-0.195419  17.8186  6.00522
2.17235  16.2207  5.1568
5.60254  17.6742  3.95695
-0.247699  18.8715  6.27852
0.891401  16.7518  5.62917
4.19524  16.6961  4.59619
0.218902  19.6688  6.44439
0.105994  17.6788  6.00522
2.66562  16.4107  5.1568
5.87147  18.3084  3.95695
-0.0861551  18.7153  6.27852
1.32531  16.7663  5.62917
4.60709  17.1515  4.59619
0.270018  19.5676  6.44439
0.423361  17.5803  6.00522
3.12916  16.6647  5.1568
6.05346  18.9728  3.95695
0.0947713  18.582  6.27852
1.75342  16.8385  5.62917
4.95457  17.6577  4.59619
0.33416  19.4742  6.44439
0.751018  17.5251  6.00522
3.55472  16.9783  5.1568
6.14528  19.6556  3.95695
0.291851  18.474  6.27852
2.16808  16.9672  5.62917
5.23149  18.2057  4.59619
0.410185  19.3901  6.44439
1.08312  17.5139  6.00522
3.93468  17.3457  5.1568
0.501569  18.3932  6.27852
2.56189  17.1499  5.62917
5.43289  18.7857  4.59619
0.496734  19.317  6.44439
1.41373  17.5472  6.00522
4.26227  17.7606  5.1568
0.72018  18.3411  6.27852
2.92783  17.3835  5.62917
5.55518  19.3874  4.59619
0.592265  19.256  6.44439
1.73697  17.6242  6.00522
4.53165  18.2154  5.1568
0.943785  18.3186  6.27852
3.25938  17.6638  5.62917
0.695071  19.2083  6.44439
2.04705  17.7437  6.00522
4.73801  18.702  5.1568
1.16839  18.3261  6.27852
3.5506  17.9858  5.62917
0.803319  19.1747  6.44439
2.33845  17.9034  6.00522
4.87766  19.2118  5.1568
1.39  18.3635  6.27852
3.79631  18.3437  5.62917
0.915077  19.1558  6.44439
2.60596  18.1005  6.00522
4.94811  19.7357  5.1568
1.60464  18.4301  6.27852
3.99211  18.7312  5.62917
1.02835  19.1521  6.44439
2.84482  18.3315  6.00522
1.80849  18.5247  6.27852
4.13452  19.1414  5.62917
1.14112  19.1634  6.44439
3.05075  18.5922  6.00522
1.99792  18.6456  6.27852
4.221  19.5668  5.62917
1.25137  19.1897  6.44439
3.22009  18.8781  6.00522
2.16954  18.7907  6.27852
1.35713  19.2304  6.44439
3.34981  19.1841  6.00522
2.32029  18.9574  6.27852
1.45652  19.2849  6.44439
3.4376  19.5045  6.00522
2.44747  19.1427  6.27852
1.54776  19.3521  6.44439
3.48189  19.8339  6.00522
2.54883  19.3432  6.27852
1.62923  19.4309  6.44439
2.62255  19.5555  6.27852
1.69947  19.5198  6.44439
2.66731  19.7758  6.27852
1.75723  19.6174  6.44439
1.80148  19.7217  6.44439
1.83142  19.831  6.44439
1.84653  19.9433  6.44439
51  4  3
51  5  4
52  51  3
53  52  3
54  53  3
55  5  51
55  51  52
56  54  3
57  52  53
57  55  52
58  56  3
59  53  54
59  57  53
60  6  5
60  7  6
60  5  55
61  58  3
62  59  54
62  54  56
63  60  55
63  55  57
64  61  3
65  56  58
65  62  56
66  57  59
66  63  57
67  64  3
68  58  61
68  65  58
69  59  62
69  66  59
70  67  3
71  7  60
71  60  63
72  61  64
72  68  61
73  62  65
73  69  62