VARIABLES = X Y Z
Zone  I = 11 ,J = 11 , Datapacking = Point
-0.762613  -6  5
-1.23404  -4.9  6.1
-1.18224  -3.8  7.2
-0.735922  -2.7  8.3
-0.190663  -1.6  9.4
0.0627124  -0.5  10.5
-0.190663  0.6  11.6
-0.735922  1.7  12.7
-1.18224  2.8  13.8
-1.23404  3.9  14.9
-0.762613  5  16
-1.23404  -4.9  3.9
-1.67657  -3.8  5
-1.54362  -2.7  6.1
-0.944488  -1.6  7.2
-0.22655  -0.5  8.3
0.104418  0.6  9.4
-0.22655  1.7  10.5
-0.944488  2.8  11.6
-1.54362  3.9  12.7
-1.67657  5  13.8
-1.23404  6.1  14.9
-1.18224  -3.8  2.8
-1.54362  -2.7  3.9
-1.27549  -1.6  5
-0.455818  -0.5  6.1
0.498806  0.6  7.2
0.930232  1.7  8.3
0.498806  2.8  9.4
-0.455818  3.9  10.5
-1.27549  5  11.6
-1.54362  6.1  12.7
-1.18224  7.2  13.8
-0.735922  -2.7  1.7
-0.944488  -1.6  2.8
-0.455818  -0.5  3.9
0.684713  0.6  5
1.95233  1.7  6.1
2.51411  2.8  7.2
1.95233  3.9  8.3
0.684713  5  9.4
-0.455818  6.1  10.5
-0.944488  7.2  11.6
-0.735922  8.3  12.7
-0.190663  -1.6  0.6
-0.22655  -0.5  1.7
0.498806  0.6  2.8
1.95233  1.7  3.9
3.52063  2.8  5
4.22065  3.9  6.1
3.52063  5  7.2
1.95233  6.1  8.3
0.498806  7.2  9.4
-0.22655  8.3  10.5
-0.190663  9.4  11.6
0.0627124  -0.5  -0.5
0.104418  0.6  0.6
0.930232  1.7  1.7
2.51411  2.8  2.8
4.22065  3.9  3.9
5  5  5
4.22065  6.1  6.1
2.51411  7.2  7.2
0.930232  8.3  8.3
0.104418  9.4  9.4
0.0627124  10.5  10.5
-0.190663  0.6  -1.6
-0.22655  1.7  -0.5
0.498806  2.8  0.6
1.95233  3.9  1.7
3.52063  5  2.8
4.22065  6.1  3.9
3.52063  7.2  5
1.95233  8.3  6.1
0.498806  9.4  7.2
-0.22655  10.5  8.3
-0.190663  11.6  9.4
-0.735922  1.7  -2.7
-0.944488  2.8  -1.6
-0.455818  3.9  -0.5
0.684713  5  0.6
1.95233  6.1  1.7
2.51411  7.2  2.8
1.95233  8.3  3.9
0.684713  9.4  5
-0.455818  10.5  6.1
-0.944488  11.6  7.2
-0.735922  12.7  8.3
-1.18224  2.8  -3.8
-1.54362  3.9  -2.7
-1.27549  5  -1.6
-0.455818  6.1  -0.5
0.498806  7.2  0.6
0.930232  8.3  1.7
0.498806  9.4  2.8
-0.455818  10.5  3.9
-1.27549  11.6  5
-1.54362  12.7  6.1
-1.18224  13.8  7.2
-1.23404  3.9  -4.9
-1.67657  5  -3.8
-1.54362  6.1  -2.7
-0.944488  7.2  -1.6
-0.22655  8.3  -0.5
0.104418  9.4  0.6
-0.22655  10.5  1.7
-0.944488  11.6  2.8
-1.54362  12.7  3.9
-1.67657  13.8  5
-1.23404  14.9  6.1
-0.762613  5  -6
-1.23404  6.1  -4.9
-1.18224  7.2  -3.8
-0.735922  8.3  -2.7
-0.190663  9.4  -1.6
0.0627124  10.5  -0.5
-0.190663  11.6  0.6
-0.735922  12.7  1.7
-1.18224  13.8  2.8
-1.23404  14.9  3.9
-0.762613  16  5
VARIABLES = X Y Z
Zone  I = 11 ,J = 11 , Datapacking = Point
1.7643  -2.58896  -0.350056
4.34135  -2.78021  0.622574
7.08677  -2.9869  1.58699
10.1094  -3.219  2.53788
12.67  -3.40875  3.51131
13.4045  -3.43107  4.57384
11.5482  -3.21586  5.76277
7.73906  -2.82161  7.04699
3.69602  -2.40592  8.34262
0.792497  -2.0947  9.58265
-1.73653  -1.81781  10.8044
-0.2385  4.24761  -0.493922
0.9823  4.18071  0.54488
2.20924  4.11324  1.58338
3.78442  4.01384  2.60489
5.38354  3.91224  3.62524
6.03838  3.89723  4.69165
5.17646  4.02127  5.83207
3.28754  4.23947  7.0226
1.55867  4.44299  8.20532
0.55171  4.58033  9.35281
-1.27058  4.79242  10.5401
0.16788  10.8633  -0.755334
0.119906  10.9127  0.345372
-0.163517  10.9837  1.45757
-0.470475  11.0569  2.57091
-0.690073  11.122  3.67999
-0.866166  11.1832  4.78694
-0.932763  11.2343  5.88856
-0.640427  11.2525  6.97266
0.12685  11.2272  8.03359
0.7547  11.2147  9.10132
-0.558345  11.3801  10.2638
2.89403  17.2663  -1.12993
1.96909  17.3961  0.0135639
0.613373  17.5654  1.17808
-1.1685  17.7738  2.36338
-3.00784  17.9875  3.55149
-4.20341  18.1421  4.70819
-4.11355  18.1789  5.80217
-2.60745  18.0858  6.82705
-0.347678  17.9237  7.81516
1.25109  17.8221  8.83552
0.468963  17.9388  9.97204
7.31472  23.514  -1.5872
5.89158  23.6895  -0.419401
3.92966  23.9144  0.774687
1.34972  24.1959  1.99893
-1.42221  24.4951  3.23254
-3.43698  24.7248  4.42921
-3.81277  24.8043  5.54591
-2.37333  24.7173  6.57404
0.0508021  24.5401  7.55413
1.86766  24.4185  8.56385
1.54957  24.4927  9.67774
12.6255  29.68  -2.0879
10.8763  29.8854  -0.904196
8.53485  30.1451  0.308412
5.55865  30.463  1.55199
2.33517  30.8035  2.80763
-0.271746  31.0876  4.03319
-1.40549  31.2365  5.18687
-0.78722  31.2248  6.25507
0.964014  31.1093  7.26799
2.49212  31.0142  8.2918
2.46996  31.0613  9.39124
18.1109  35.83  -2.59712
16.014  36.0673  -1.39645
13.2835  36.3627  -0.16486
9.9502  36.7133  1.09614
6.37172  37.0864  2.3691
3.27508  37.4153  3.61855
1.4122  37.6311  4.80781
1.11884  37.703  5.92049
2.02157  37.6653  6.97481
3.09073  37.6123  8.02101
3.19068  37.6481  9.1145
23.2906  42.0081  -3.09143
20.7634  42.2848  -1.86976
17.5665  42.6229  -0.615416
13.7964  43.0136  0.666892
9.81567  43.4236  1.95948
6.27038  43.7937  3.23082
3.82404  44.063  4.44855
2.81651  44.2003  5.59607
3.02575  44.2262  6.68423
3.67503  44.2117  7.75091
3.7952  44.2457  8.84342
27.9439  48.2344  -3.56005
24.9522  48.5537  -2.31572
21.2834  48.9351  -1.03835
17.1011  49.3636  0.264069
12.772  49.8055  1.57365
8.85523  50.2096  2.86312
5.92313  50.5235  4.10455
4.31842  50.7156  5.28121
3.95216  50.7942  6.39744
4.25046  50.8119  7.48125
4.35851  50.847  8.57435
32.0441  54.5115  -4.00169
28.598  54.8724  -2.73519
24.5084  55.2924  -1.43728
19.9959  55.7511  -0.118752
15.4133  56.2163  1.2032
11.2142  56.6463  2.50644
7.86994  56.9979  3.76798
5.72617  57.2395  4.97094
4.82889  57.3668  6.11308
4.79619  57.4148  7.21304
4.85247  57.4546  8.30866
35.6678  60.8322  -4.42008
31.7789  61.2337  -3.13197
27.3007  61.6893  -1.81511
22.4647  62.1777  -0.480794
17.6146  62.6674  0.854214
13.1689  63.12  2.16949
9.54249  63.4975  3.44479
7.03797  63.7722  4.66535
5.7266  63.9374  5.8277
5.34299  64.0176  6.94478
5.22545  64.0734  8.04888
VARIABLES = X Y Z
Zone  I = 11 ,J = 11 , Datapacking = Point
4.56845  -2.44057  -0.25879
5.69986  -2.45165  0.8059
7.04515  -2.47331  1.86535
8.63027  -2.50683  2.91893
9.95502  -2.52747  3.97889
10.6213  -2.51554  5.05497
10.853  -2.48211  6.14169
11.0848  -2.44868  7.2284
10.7662  -2.38802  8.3286
7.49778  -2.18143  9.50102
-1.41246  -1.69572  10.8116
3.00109  4.24505  -0.483524
3.41467  4.26949  0.598742
3.83605  4.29354  1.68082
4.59155  4.30105  2.75471
5.18537  4.31657  3.83256
5.18694  4.36139  4.92492
5.22576  4.40437  6.01636
6.38555  4.39188  7.08035
8.13739  4.35011  8.12985
6.79912  4.46122  9.25501
-1.64405  4.92382  10.5541
3.16464  10.845  -0.750639
3.0012  10.898  0.345755
2.59112  10.9632  1.44819
2.34396  11.0203  2.54663
1.95238  11.0846  3.64861
1.31278  11.1611  4.75667
1.37725  11.2028  5.84748
3.32814  11.1512  6.8921
6.35332  11.0465  7.91043
6.18628  11.0996  9.00691
-1.53797  11.5266  10.2884
4.49231  17.3874  -1.04626
4.04441  17.4545  0.0571015
3.18361  17.542  1.17057
2.1959  17.6357  2.28715
1.04103  17.7378  3.40782
0.064186  17.831  4.52413
0.285068  17.865  5.61111
2.49138  17.8007  6.64948
5.56242  17.6937  7.66668
5.6471  17.7344  8.757
-0.980955  18.1072  10.0117
6.27783  23.9072  -1.35309
5.82212  23.9746  -0.249536
4.87402  24.0664  0.866071
3.57936  24.1754  1.99016
2.10093  24.2934  3.11875
1.04202  24.3907  4.23707
1.27431  24.4241  5.32378
3.13525  24.3769  6.37061
5.44296  24.3077  7.40649
5.25896  24.3617  8.50339
-0.188037  24.676  9.72915
7.94295  30.4329  -1.65697
7.61379  30.4941  -0.556515
6.74099  30.5821  0.557247
5.42414  30.6922  1.68188
3.92336  30.8113  2.81102
2.86189  30.9087  3.9294
2.89864  30.9518  5.0209
4.12204  30.9362  6.08333
5.52449  30.9117  7.14139
5.02403  30.9814  8.24603
0.608067  31.2447  9.44655
9.09801  36.9838  -1.94836
8.8905  37.039  -0.850886
8.07897  37.124  0.261376
6.80139  37.2321  1.38505
5.34771  37.3489  2.51304
4.25192  37.4481  3.63226
4.01586  37.5046  4.73043
4.67929  37.5167  5.80658
5.48213  37.5219  6.87931
4.89632  37.5958  7.98605
1.33604  37.8168  9.16562
9.53227  43.5704  -2.2221
9.39305  43.6222  -1.1263
8.59223  43.7067  -0.014301
7.32463  43.8143  1.10913
5.89325  43.93  2.23657
4.75409  44.0313  3.35685
4.32582  44.0974  4.45973
4.67677  44.1249  5.54353
5.2508  44.1414  6.62187
4.84203  44.2065  7.72427
2.07715  44.3882  8.88436
9.20399  50.1947  -2.47718
9.11588  50.244  -1.38263
8.34385  50.3271  -0.27133
7.11353  50.4328  0.851187
5.74212  50.5456  1.97716
4.63912  50.6451  3.09656
4.16267  50.7135  4.20062
4.39594  50.7469  5.2873
4.9404  50.7648  6.36636
4.85604  50.8139  7.46082
2.91133  50.955  8.60082
8.23356  56.8508  -2.71652
8.22538  56.8961  -1.62393
7.54816  56.9745  -0.514958
6.44238  57.0741  0.604509
5.22929  57.179  1.7266
4.27001  57.2714  2.84248
3.8576  57.3367  3.94497
4.07665  57.3708  5.032
4.66796  57.3864  6.10992
4.93855  57.4179  7.19568
3.76032  57.5211  8.31693
6.83575  63.5281  -2.94541
6.95199  63.5672  -1.85586
6.42411  63.6382  -0.750546
5.51232  63.7282  0.364171
4.52471  63.822  1.48074
3.7744  63.904  2.59151
3.51233  63.9619  3.69032
3.83237  63.9909  4.77487
4.55633  64  5.84954
5.11705  64.0172  6.9282
4.46883  64.0941  8.03647
VARIABLES = X Y Z
Zone  I = 11 ,J = 11 , Datapacking = Point
0  -0.775678  10.1966
0  -0.225829  10.7595
0  0.32402  11.3224
0  0.873868  11.8853
0  1.42372  12.4482
0  1.97357  13.0111
0  2.52341  13.574
0  3.07326  14.1369
0  3.62311  14.6998
0  4.17296  15.2627
0  4.72281  15.8256
0  0.337075  9.10966
0  0.886924  9.67256
0  1.43677  10.2355
0  1.98662  10.7984
0  2.53647  11.3613
0  3.08632  11.9242
0  3.63617  12.4871
0  4.18602  13.05
0  4.73586  13.6129
0  5.28571  14.1758
0  5.83556  14.7387
0  1.44983  8.02271
0  1.99968  8.58562
0  2.54953  9.14852
0  3.09937  9.71143
0  3.64922  10.2743
0  4.19907  10.8372
0  4.74892  11.4001
0  5.29877  11.963
0  5.84862  12.5259
0  6.39847  13.0889
0  6.94831  13.6518
0  2.56258  6.93577
0  3.11243  7.49867
0  3.66228  8.06158
0  4.21213  8.62448
0  4.76198  9.18739
0  5.31182  9.75029
0  5.86167  10.3132
0  6.41152  10.8761
0  6.96137  11.439
0  7.51122  12.0019
0  8.06107  12.5648
0  3.67533  5.84883
0  4.22518  6.41173
0  4.77503  6.97463
0  5.32488  7.53754
0  5.87473  8.10044
0  6.42458  8.66335
0  6.97443  9.22625
0  7.52427  9.78916
0  8.07412  10.3521
0  8.62397  10.915
0  9.17382  11.4779
0  4.78809  4.76188
0  5.33794  5.32479
0  5.88778  5.88769
0  6.43763  6.45059
0  6.98748  7.0135
0  7.53733  7.5764
0  8.08718  8.13931
0  8.63703  8.70221
0  9.18688  9.26512
0  9.73672  9.82802
0  10.2866  10.3909
0  5.90084  3.67494
0  6.45069  4.23784
0  7.00054  4.80075
0  7.55039  5.36365
0  8.10023  5.92655
0  8.65008  6.48946
0  9.19993  7.05236
0  9.74978  7.61527
0  10.2996  8.17817
0  10.8495  8.74108
0  11.3993  9.30398
0  7.01359  2.58799
0  7.56344  3.1509
0  8.11329  3.7138
0  8.66314  4.27671
0  9.21299  4.83961
0  9.76284  5.40251
0  10.3127  5.96542
0  10.8625  6.52832
0  11.4124  7.09123
0  11.9622  7.65413
0  12.5121  8.21704
0  8.12635  1.50105
0  8.67619  2.06395
0  9.22604  2.62686
0  9.77589  3.18976
0  10.3257  3.75267
0  10.8756  4.31557
0  11.4254  4.87848
0  11.9753  5.44138
0  12.5251  6.00428
0  13.075  6.56719
0  13.6248  7.13009
0  9.2391  0.414105
0  9.78895  0.977009
0  10.3388  1.53991
0  10.8886  2.10282
0  11.4385  2.66572
0  11.9883  3.22863
0  12.5382  3.79153
0  13.088  4.35444
0  13.6379  4.91734
0  14.1877  5.48024
0  14.7376  6.04315
0  10.3519  -0.67284
0  10.9017  -0.109935
0  11.4515  0.452969
0  12.0014  1.01587
0  12.5512  1.57878
0  13.1011  2.14168
0  13.6509  2.70459
0  14.2008  3.26749
0  14.7506  3.8304
0  15.3005  4.3933
0  15.8503  4.9562
VARIABLES = X Y Z
Zone  I = 11 ,J = 11 , Datapacking = Point
0  -0.775678  10.1966
0  -0.225829  10.7595
0  0.32402  11.3224
0  0.873868  11.8853
0  1.42372  12.4482
0  1.97357  13.0111
0  2.52341  13.574
0  3.07326  14.1369
0  3.62311  14.6998
0  4.17296  15.2627
0  4.72281  15.8256
0  0.337075  9.10966
0  0.886924  9.67256
0  1.43677  10.2355
0  1.98662  10.7984
0  2.53647  11.3613
0  3.08632  11.9242
0  3.63617  12.4871
0  4.18602  13.05
0  4.73586  13.6129
0  5.28571  14.1758
0  5.83556  14.7387
0  1.44983  8.02271
0  1.99968  8.58562
0  2.54953  9.14852
0  3.09937  9.71143
0  3.64922  10.2743
0  4.19907  10.8372
0  4.74892  11.4001
0  5.29877  11.963
0  5.84862  12.5259
0  6.39847  13.0889
0  6.94831  13.6518
0  2.56258  6.93577
0  3.11243  7.49867
0  3.66228  8.06158
0  4.21213  8.62448
0  4.76198  9.18739
0  5.31182  9.75029
0  5.86167  10.3132
0  6.41152  10.8761
0  6.96137  11.439
0  7.51122  12.0019
0  8.06107  12.5648
0  3.67533  5.84883
0  4.22518  6.41173
0  4.77503  6.97463
0  5.32488  7.53754
0  5.87473  8.10044
0  6.42458  8.66335
0  6.97443  9.22625
0  7.52427  9.78916
0  8.07412  10.3521
0  8.62397  10.915
0  9.17382  11.4779
0  4.78809  4.76188
0  5.33794  5.32479
0  5.88778  5.88769
0  6.43763  6.45059
0  6.98748  7.0135
0  7.53733  7.5764
0  8.08718  8.13931
0  8.63703  8.70221
0  9.18688  9.26512
0  9.73672  9.82802
0  10.2866  10.3909
0  5.90084  3.67494
0  6.45069  4.23784
0  7.00054  4.80075
0  7.55039  5.36365
0  8.10023  5.92655
0  8.65008  6.48946
0  9.19993  7.05236
0  9.74978  7.61527
0  10.2996  8.17817
0  10.8495  8.74108
0  11.3993  9.30398
0  7.01359  2.58799
0  7.56344  3.1509
0  8.11329  3.7138
0  8.66314  4.27671
0  9.21299  4.83961
0  9.76284  5.40251
0  10.3127  5.96542
0  10.8625  6.52832
0  11.4124  7.09123
0  11.9622  7.65413
0  12.5121  8.21704
0  8.12635  1.50105
0  8.67619  2.06395
0  9.22604  2.62686
0  9.77589  3.18976
0  10.3257  3.75267
0  10.8756  4.31557
0  11.4254  4.87848
0  11.9753  5.44138
0  12.5251  6.00428
0  13.075  6.56719
0  13.6248  7.13009
0  9.2391  0.414105
0  9.78895  0.977009
0  10.3388  1.53991
0  10.8886  2.10282
0  11.4385  2.66572
0  11.9883  3.22863
0  12.5382  3.79153
0  13.088  4.35444
0  13.6379  4.91734
0  14.1877  5.48024
0  14.7376  6.04315
0  10.3519  -0.67284
0  10.9017  -0.109935
0  11.4515  0.452969
0  12.0014  1.01587
0  12.5512  1.57878
0  13.1011  2.14168
0  13.6509  2.70459
0  14.2008  3.26749
0  14.7506  3.8304
0  15.3005  4.3933
0  15.8503  4.9562
VARIABLES = X Y Z
Zone  I = 11 ,J = 11 , Datapacking = Point
0  -0.775678  10.1966
0  -0.225829  10.7595
0  0.32402  11.3224
0  0.873868  11.8853
0  1.42372  12.4482
0  1.97357  13.0111
0  2.52341  13.574
0  3.07326  14.1369
0  3.62311  14.6998
0  4.17296  15.2627
0  4.72281  15.8256
0  0.337075  9.10966
0  0.886924  9.67256
0  1.43677  10.2355
0  1.98662  10.7984
0  2.53647  11.3613
0  3.08632  11.9242
0  3.63617  12.4871
0  4.18602  13.05
0  4.73586  13.6129
0  5.28571  14.1758
0  5.83556  14.7387
0  1.44983  8.02271
0  1.99968  8.58562
0  2.54953  9.14852
0  3.09937  9.71143
0  3.64922  10.2743
0  4.19907  10.8372
0  4.74892  11.4001
0  5.29877  11.963
0  5.84862  12.5259
0  6.39847  13.0889
0  6.94831  13.6518
0  2.56258  6.93577
0  3.11243  7.49867
0  3.66228  8.06158
0  4.21213  8.62448
0  4.76198  9.18739
0  5.31182  9.75029
0  5.86167  10.3132
0  6.41152  10.8761
0  6.96137  11.439
0  7.51122  12.0019
0  8.06107  12.5648
0  3.67533  5.84883
0  4.22518  6.41173
0  4.77503  6.97463
0  5.32488  7.53754
0  5.87473  8.10044
0  6.42458  8.66335
0  6.97443  9.22625
0  7.52427  9.78916
0  8.07412  10.3521
0  8.62397  10.915
0  9.17382  11.4779
0  4.78809  4.76188
0  5.33794  5.32479
0  5.88778  5.88769
0  6.43763  6.45059
0  6.98748  7.0135
0  7.53733  7.5764
0  8.08718  8.13931
0  8.63703  8.70221
0  9.18688  9.26512
0  9.73672  9.82802
0  10.2866  10.3909
0  5.90084  3.67494
0  6.45069  4.23784
0  7.00054  4.80075
0  7.55039  5.36365
0  8.10023  5.92655
0  8.65008  6.48946
0  9.19993  7.05236
0  9.74978  7.61527
0  10.2996  8.17817
0  10.8495  8.74108
0  11.3993  9.30398
0  7.01359  2.58799
0  7.56344  3.1509
0  8.11329  3.7138
0  8.66314  4.27671
0  9.21299  4.83961
0  9.76284  5.40251
0  10.3127  5.96542
0  10.8625  6.52832
0  11.4124  7.09123
0  11.9622  7.65413
0  12.5121  8.21704
0  8.12635  1.50105
0  8.67619  2.06395
0  9.22604  2.62686
0  9.77589  3.18976
0  10.3257  3.75267
0  10.8756  4.31557
0  11.4254  4.87848
0  11.9753  5.44138
0  12.5251  6.00428
0  13.075  6.56719
0  13.6248  7.13009
0  9.2391  0.414105
0  9.78895  0.977009
0  10.3388  1.53991
0  10.8886  2.10282
0  11.4385  2.66572
0  11.9883  3.22863
0  12.5382  3.79153
0  13.088  4.35444
0  13.6379  4.91734
0  14.1877  5.48024
0  14.7376  6.04315
0  10.3519  -0.67284
0  10.9017  -0.109935
0  11.4515  0.452969
0  12.0014  1.01587
0  12.5512  1.57878
0  13.1011  2.14168
0  13.6509  2.70459
0  14.2008  3.26749
0  14.7506  3.8304
0  15.3005  4.3933
0  15.8503  4.9562
VARIABLES = X Y Z
Zone  I = 11 ,J = 11 , Datapacking = Point
0  -0.775678  10.1966
0  -0.225829  10.7595
0  0.32402  11.3224
0  0.873868  11.8853
0  1.42372  12.4482
0  1.97357  13.0111
0  2.52341  13.574
0  3.07326  14.1369
0  3.62311  14.6998
0  4.17296  15.2627
0  4.72281  15.8256
0  0.337075  9.10966
0  0.886924  9.67256
0  1.43677  10.2355
0  1.98662  10.7984
0  2.53647  11.3613
0  3.08632  11.9242
0  3.63617  12.4871
0  4.18602  13.05
0  4.73586  13.6129
0  5.28571  14.1758
0  5.83556  14.7387
0  1.44983  8.02271
0  1.99968  8.58562
0  2.54953  9.14852
0  3.09937  9.71143
0  3.64922  10.2743
0  4.19907  10.8372
0  4.74892  11.4001
0  5.29877  11.963
0  5.84862  12.5259
0  6.39847  13.0889
0  6.94831  13.6518
0  2.56258  6.93577
0  3.11243  7.49867
0  3.66228  8.06158
0  4.21213  8.62448
0  4.76198  9.18739
0  5.31182  9.75029
0  5.86167  10.3132
0  6.41152  10.8761
0  6.96137  11.439
0  7.51122  12.0019
0  8.06107  12.5648
0  3.67533  5.84883
0  4.22518  6.41173
0  4.77503  6.97463
0  5.32488  7.53754
0  5.87473  8.10044
0  6.42458  8.66335
0  6.97443  9.22625
0  7.52427  9.78916
0  8.07412  10.3521
0  8.62397  10.915
0  9.17382  11.4779
0  4.78809  4.76188
0  5.33794  5.32479
0  5.88778  5.88769
0  6.43763  6.45059
0  6.98748  7.0135
0  7.53733  7.5764
0  8.08718  8.13931
0  8.63703  8.70221
0  9.18688  9.26512
0  9.73672  9.82802
0  10.2866  10.3909
0  5.90084  3.67494
0  6.45069  4.23784
0  7.00054  4.80075
0  7.55039  5.36365
0  8.10023  5.92655
0  8.65008  6.48946
0  9.19993  7.05236
0  9.74978  7.61527
0  10.2996  8.17817
0  10.8495  8.74108
0  11.3993  9.30398
0  7.01359  2.58799
0  7.56344  3.1509
0  8.11329  3.7138
0  8.66314  4.27671
0  9.21299  4.83961
0  9.76284  5.40251
0  10.3127  5.96542
0  10.8625  6.52832
0  11.4124  7.09123
0  11.9622  7.65413
0  12.5121  8.21704
0  8.12635  1.50105
0  8.67619  2.06395
0  9.22604  2.62686
0  9.77589  3.18976
0  10.3257  3.75267
0  10.8756  4.31557
0  11.4254  4.87848
0  11.9753  5.44138
0  12.5251  6.00428
0  13.075  6.56719
0  13.6248  7.13009
0  9.2391  0.414105
0  9.78895  0.977009
0  10.3388  1.53991
0  10.8886  2.10282
0  11.4385  2.66572
0  11.9883  3.22863
0  12.5382  3.79153
0  13.088  4.35444
0  13.6379  4.91734
0  14.1877  5.48024
0  14.7376  6.04315
0  10.3519  -0.67284
0  10.9017  -0.109935
0  11.4515  0.452969
0  12.0014  1.01587
0  12.5512  1.57878
0  13.1011  2.14168
0  13.6509  2.70459
0  14.2008  3.26749
0  14.7506  3.8304
0  15.3005  4.3933
0  15.8503  4.9562
VARIABLES = X Y Z
Zone  I = 11 ,J = 11 , Datapacking = Point
0  -0.775678  10.1966
0  -0.225829  10.7595
0  0.32402  11.3224
0  0.873868  11.8853
0  1.42372  12.4482
0  1.97357  13.0111
0  2.52341  13.574
0  3.07326  14.1369
0  3.62311  14.6998
0  4.17296  15.2627
0  4.72281  15.8256
0  0.337075  9.10966
0  0.886924  9.67256
0  1.43677  10.2355
0  1.98662  10.7984
0  2.53647  11.3613
0  3.08632  11.9242
0  3.63617  12.4871
0  4.18602  13.05
0  4.73586  13.6129
0  5.28571  14.1758
0  5.83556  14.7387
0  1.44983  8.02271
0  1.99968  8.58562
0  2.54953  9.14852
0  3.09937  9.71143
0  3.64922  10.2743
0  4.19907  10.8372
0  4.74892  11.4001
0  5.29877  11.963
0  5.84862  12.5259
0  6.39847  13.0889
0  6.94831  13.6518
0  2.56258  6.93577
0  3.11243  7.49867
0  3.66228  8.06158
0  4.21213  8.62448
0  4.76198  9.18739
0  5.31182  9.75029
0  5.86167  10.3132
0  6.41152  10.8761
0  6.96137  11.439
0  7.51122  12.0019
0  8.06107  12.5648
0  3.67533  5.84883
0  4.22518  6.41173
0  4.77503  6.97463
0  5.32488  7.53754
0  5.87473  8.10044
0  6.42458  8.66335
0  6.97443  9.22625
0  7.52427  9.78916
0  8.07412  10.3521
0  8.62397  10.915
0  9.17382  11.4779
0  4.78809  4.76188
0  5.33794  5.32479
0  5.88778  5.88769
0  6.43763  6.45059
0  6.98748  7.0135
0  7.53733  7.5764
0  8.08718  8.13931
0  8.63703  8.70221
0  9.18688  9.26512
0  9.73672  9.82802
0  10.2866  10.3909
0  5.90084  3.67494
0  6.45069  4.23784
0  7.00054  4.80075
0  7.55039  5.36365
0  8.10023  5.92655
0  8.65008  6.48946
0  9.19993  7.05236
0  9.74978  7.61527
0  10.2996  8.17817
0  10.8495  8.74108
0  11.3993  9.30398
0  7.01359  2.58799
0  7.56344  3.1509
0  8.11329  3.7138
0  8.66314  4.27671
0  9.21299  4.83961
0  9.76284  5.40251
0  10.3127  5.96542
0  10.8625  6.52832
0  11.4124  7.09123
0  11.9622  7.65413
0  12.5121  8.21704
0  8.12635  1.50105
0  8.67619  2.06395
0  9.22604  2.62686
0  9.77589  3.18976
0  10.3257  3.75267
0  10.8756  4.31557
0  11.4254  4.87848
0  11.9753  5.44138
0  12.5251  6.00428
0  13.075  6.56719
0  13.6248  7.13009
0  9.2391  0.414105
0  9.78895  0.977009
0  10.3388  1.53991
0  10.8886  2.10282
0  11.4385  2.66572
0  11.9883  3.22863
0  12.5382  3.79153
0  13.088  4.35444
0  13.6379  4.91734
0  14.1877  5.48024
0  14.7376  6.04315
0  10.3519  -0.67284
0  10.9017  -0.109935
0  11.4515  0.452969
0  12.0014  1.01587
0  12.5512  1.57878
0  13.1011  2.14168
0  13.6509  2.70459
0  14.2008  3.26749
0  14.7506  3.8304
0  15.3005  4.3933
0  15.8503  4.9562
VARIABLES = X Y Z
Zone  I = 11 ,J = 11 , Datapacking = Point
0  -0.775678  10.1966
0  -0.225829  10.7595
0  0.32402  11.3224
0  0.873868  11.8853
0  1.42372  12.4482
0  1.97357  13.0111
0  2.52341  13.574
0  3.07326  14.1369
0  3.62311  14.6998
0  4.17296  15.2627
0  4.72281  15.8256
0  0.337075  9.10966
0  0.886924  9.67256
0  1.43677  10.2355
0  1.98662  10.7984
0  2.53647  11.3613
0  3.08632  11.9242
0  3.63617  12.4871
0  4.18602  13.05
0  4.73586  13.6129
0  5.28571  14.1758
0  5.83556  14.7387
0  1.44983  8.02271
0  1.99968  8.58562
0  2.54953  9.14852
0  3.09937  9.71143
0  3.64922  10.2743
0  4.19907  10.8372
0  4.74892  11.4001
0  5.29877  11.963
0  5.84862  12.5259
0  6.39847  13.0889
0  6.94831  13.6518
0  2.56258  6.93577
0  3.11243  7.49867
0  3.66228  8.06158
0  4.21213  8.62448
0  4.76198  9.18739
0  5.31182  9.75029
0  5.86167  10.3132
0  6.41152  10.8761
0  6.96137  11.439
0  7.51122  12.0019
0  8.06107  12.5648
0  3.67533  5.84883
0  4.22518  6.41173
0  4.77503  6.97463
0  5.32488  7.53754
0  5.87473  8.10044
0  6.42458  8.66335
0  6.97443  9.22625
0  7.52427  9.78916
0  8.07412  10.3521
0  8.62397  10.915
0  9.17382  11.4779
0  4.78809  4.76188
0  5.33794  5.32479
0  5.88778  5.88769
0  6.43763  6.45059
0  6.98748  7.0135
0  7.53733  7.5764
0  8.08718  8.13931
0  8.63703  8.70221
0  9.18688  9.26512
0  9.73672  9.82802
0  10.2866  10.3909
0  5.90084  3.67494
0  6.45069  4.23784
0  7.00054  4.80075
0  7.55039  5.36365
0  8.10023  5.92655
0  8.65008  6.48946
0  9.19993  7.05236
0  9.74978  7.61527
0  10.2996  8.17817
0  10.8495  8.74108
0  11.3993  9.30398
0  7.01359  2.58799
0  7.56344  3.1509
0  8.11329  3.7138
0  8.66314  4.27671
0  9.21299  4.83961
0  9.76284  5.40251
0  10.3127  5.96542
0  10.8625  6.52832
0  11.4124  7.09123
0  11.9622  7.65413
0  12.5121  8.21704
0  8.12635  1.50105
0  8.67619  2.06395
0  9.22604  2.62686
0  9.77589  3.18976
0  10.3257  3.75267
0  10.8756  4.31557
0  11.4254  4.87848
0  11.9753  5.44138
0  12.5251  6.00428
0  13.075  6.56719
0  13.6248  7.13009
0  9.2391  0.414105
0  9.78895  0.977009
0  10.3388  1.53991
0  10.8886  2.10282
0  11.4385  2.66572
0  11.9883  3.22863
0  12.5382  3.79153
0  13.088  4.35444
0  13.6379  4.91734
0  14.1877  5.48024
0  14.7376  6.04315
0  10.3519  -0.67284
0  10.9017  -0.109935
0  11.4515  0.452969
0  12.0014  1.01587
0  12.5512  1.57878
0  13.1011  2.14168
0  13.6509  2.70459
0  14.2008  3.26749
0  14.7506  3.8304
0  15.3005  4.3933
0  15.8503  4.9562
VARIABLES = X Y Z
Zone  I = 11 ,J = 11 , Datapacking = Point
0  -0.775678  10.1966
0  -0.225829  10.7595
0  0.32402  11.3224
0  0.873868  11.8853
0  1.42372  12.4482
0  1.97357  13.0111
0  2.52341  13.574
0  3.07326  14.1369
0  3.62311  14.6998
0  4.17296  15.2627
0  4.72281  15.8256
0  0.337075  9.10966
0  0.886924  9.67256
0  1.43677  10.2355
0  1.98662  10.7984
0  2.53647  11.3613
0  3.08632  11.9242
0  3.63617  12.4871
0  4.18602  13.05
0  4.73586  13.6129
0  5.28571  14.1758
0  5.83556  14.7387
0  1.44983  8.02271
0  1.99968  8.58562
0  2.54953  9.14852
0  3.09937  9.71143
0  3.64922  10.2743
0  4.19907  10.8372
0  4.74892  11.4001
0  5.29877  11.963
0  5.84862  12.5259
0  6.39847  13.0889
0  6.94831  13.6518
0  2.56258  6.93577
0  3.11243  7.49867
0  3.66228  8.06158
0  4.21213  8.62448
0  4.76198  9.18739
0  5.31182  9.75029
0  5.86167  10.3132
0  6.41152  10.8761
0  6.96137  11.439
0  7.51122  12.0019
0  8.06107  12.5648
0  3.67533  5.84883
0  4.22518  6.41173
0  4.77503  6.97463
0  5.32488  7.53754
0  5.87473  8.10044
0  6.42458  8.66335
0  6.97443  9.22625
0  7.52427  9.78916
0  8.07412  10.3521
0  8.62397  10.915
0  9.17382  11.4779
0  4.78809  4.76188
0  5.33794  5.32479
0  5.88778  5.88769
0  6.43763  6.45059
0  6.98748  7.0135
0  7.53733  7.5764
0  8.08718  8.13931
0  8.63703  8.70221
0  9.18688  9.26512
0  9.73672  9.82802
0  10.2866  10.3909
0  5.90084  3.67494
0  6.45069  4.23784
0  7.00054  4.80075
0  7.55039  5.36365
0  8.10023  5.92655
0  8.65008  6.48946
0  9.19993  7.05236
0  9.74978  7.61527
0  10.2996  8.17817
0  10.8495  8.74108
0  11.3993  9.30398
0  7.01359  2.58799
0  7.56344  3.1509
0  8.11329  3.7138
0  8.66314  4.27671
0  9.21299  4.83961
0  9.76284  5.40251
0  10.3127  5.96542
0  10.8625  6.52832
0  11.4124  7.09123
0  11.9622  7.65413
0  12.5121  8.21704
0  8.12635  1.50105
0  8.67619  2.06395
0  9.22604  2.62686
0  9.77589  3.18976
0  10.3257  3.75267
0  10.8756  4.31557
0  11.4254  4.87848
0  11.9753  5.44138
0  12.5251  6.00428
0  13.075  6.56719
0  13.6248  7.13009
0  9.2391  0.414105
0  9.78895  0.977009
0  10.3388  1.53991
0  10.8886  2.10282
0  11.4385  2.66572
0  11.9883  3.22863
0  12.5382  3.79153
0  13.088  4.35444
0  13.6379  4.91734
0  14.1877  5.48024
0  14.7376  6.04315
0  10.3519  -0.67284
0  10.9017  -0.109935
0  11.4515  0.452969
0  12.0014  1.01587
0  12.5512  1.57878
0  13.1011  2.14168
0  13.6509  2.70459
0  14.2008  3.26749
0  14.7506  3.8304
0  15.3005  4.3933
0  15.8503  4.9562
VARIABLES = X Y Z
Zone  I = 11 ,J = 11 , Datapacking = Point
0  -0.775678  10.1966
0  -0.225829  10.7595
0  0.32402  11.3224
0  0.873868  11.8853
0  1.42372  12.4482
0  1.97357  13.0111
0  2.52341  13.574
0  3.07326  14.1369
0  3.62311  14.6998
0  4.17296  15.2627
0  4.72281  15.8256
0  0.337075  9.10966
0  0.886924  9.67256
0  1.43677  10.2355
0  1.98662  10.7984
0  2.53647  11.3613
0  3.08632  11.9242
0  3.63617  12.4871
0  4.18602  13.05
0  4.73586  13.6129
0  5.28571  14.1758
0  5.83556  14.7387
0  1.44983  8.02271
0  1.99968  8.58562
0  2.54953  9.14852
0  3.09937  9.71143
0  3.64922  10.2743
0  4.19907  10.8372
0  4.74892  11.4001
0  5.29877  11.963
0  5.84862  12.5259
0  6.39847  13.0889
0  6.94831  13.6518
0  2.56258  6.93577
0  3.11243  7.49867
0  3.66228  8.06158
0  4.21213  8.62448
0  4.76198  9.18739
0  5.31182  9.75029
0  5.86167  10.3132
0  6.41152  10.8761
0  6.96137  11.439
0  7.51122  12.0019
0  8.06107  12.5648
0  3.67533  5.84883
0  4.22518  6.41173
0  4.77503  6.97463
0  5.32488  7.53754
0  5.87473  8.10044
0  6.42458  8.66335
0  6.97443  9.22625
0  7.52427  9.78916
0  8.07412  10.3521
0  8.62397  10.915
0  9.17382  11.4779
0  4.78809  4.76188
0  5.33794  5.32479
0  5.88778  5.88769
0  6.43763  6.45059
0  6.98748  7.0135
0  7.53733  7.5764
0  8.08718  8.13931
0  8.63703  8.70221
0  9.18688  9.26512
0  9.73672  9.82802
0  10.2866  10.3909
0  5.90084  3.67494
0  6.45069  4.23784
0  7.00054  4.80075
0  7.55039  5.36365
0  8.10023  5.92655
0  8.65008  6.48946
0  9.19993  7.05236
0  9.74978  7.61527
0  10.2996  8.17817
0  10.8495  8.74108
0  11.3993  9.30398
0  7.01359  2.58799
0  7.56344  3.1509
0  8.11329  3.7138
0  8.66314  4.27671
0  9.21299  4.83961
0  9.76284  5.40251
0  10.3127  5.96542
0  10.8625  6.52832
0  11.4124  7.09123
0  11.9622  7.65413
0  12.5121  8.21704
0  8.12635  1.50105
0  8.67619  2.06395
0  9.22604  2.62686
0  9.77589  3.18976
0  10.3257  3.75267
0  10.8756  4.31557
0  11.4254  4.87848
0  11.9753  5.44138
0  12.5251  6.00428
0  13.075  6.56719
0  13.6248  7.13009
0  9.2391  0.414105
0  9.78895  0.977009
0  10.3388  1.53991
0  10.8886  2.10282
0  11.4385  2.66572
0  11.9883  3.22863
0  12.5382  3.79153
0  13.088  4.35444
0  13.6379  4.91734
0  14.1877  5.48024
0  14.7376  6.04315
0  10.3519  -0.67284
0  10.9017  -0.109935
0  11.4515  0.452969
0  12.0014  1.01587
0  12.5512  1.57878
0  13.1011  2.14168
0  13.6509  2.70459
0  14.2008  3.26749
0  14.7506  3.8304
0  15.3005  4.3933
0  15.8503  4.9562
VARIABLES = X Y Z
Zone  I = 11 ,J = 11 , Datapacking = Point
0  -0.775678  10.1966
0  -0.225829  10.7595
0  0.32402  11.3224
0  0.873868  11.8853
0  1.42372  12.4482
0  1.97357  13.0111
0  2.52341  13.574
0  3.07326  14.1369
0  3.62311  14.6998
0  4.17296  15.2627
0  4.72281  15.8256
0  0.337075  9.10966
0  0.886924  9.67256
0  1.43677  10.2355
0  1.98662  10.7984
0  2.53647  11.3613
0  3.08632  11.9242
0  3.63617  12.4871
0  4.18602  13.05
0  4.73586  13.6129
0  5.28571  14.1758
0  5.83556  14.7387
0  1.44983  8.02271
0  1.99968  8.58562
0  2.54953  9.14852
0  3.09937  9.71143
0  3.64922  10.2743
0  4.19907  10.8372
0  4.74892  11.4001
0  5.29877  11.963
0  5.84862  12.5259
0  6.39847  13.0889
0  6.94831  13.6518
0  2.56258  6.93577
0  3.11243  7.49867
0  3.66228  8.06158
0  4.21213  8.62448
0  4.76198  9.18739
0  5.31182  9.75029
0  5.86167  10.3132
0  6.41152  10.8761
0  6.96137  11.439
0  7.51122  12.0019
0  8.06107  12.5648
0  3.67533  5.84883
0  4.22518  6.41173
0  4.77503  6.97463
0  5.32488  7.53754
0  5.87473  8.10044
0  6.42458  8.66335
0  6.97443  9.22625
0  7.52427  9.78916
0  8.07412  10.3521
0  8.62397  10.915
0  9.17382  11.4779
0  4.78809  4.76188
0  5.33794  5.32479
0  5.88778  5.88769
0  6.43763  6.45059
0  6.98748  7.0135
0  7.53733  7.5764