VARIABLES = X Y Z
ZONE N =4, E =2, DATAPACKING = POINT, ZONETYPE = FETRIANGLE
20  0  0
20  10  0
10  10  0
10  0  0
2  3  4
2  4  1
