VARIABLES = X Y
ZONE T = Circle 
2.5  3
2.49996  3.00628
2.49984  3.01257
2.49964  3.01885
2.49937  3.02512
2.49901  3.0314
2.49858  3.03766
2.49807  3.04393
2.49748  3.05018
2.49681  3.05643
2.49606  3.06267
2.49523  3.0689
2.49433  3.07511
2.49334  3.08132
2.49228  3.08751
2.49114  3.09369
2.48993  3.09985
2.48863  3.106
2.48726  3.11214
2.48582  3.11825
2.48429  3.12434
2.48269  3.13042
2.48101  3.13648
2.47926  3.14251
2.47743  3.14852
2.47553  3.15451
2.47355  3.16047
2.4715  3.16641
2.46937  3.17232
2.46716  3.17821
2.46489  3.18406
2.46254  3.18989
2.46012  3.19569
2.45762  3.20145
2.45505  3.20719
2.45241  3.21289
2.4497  3.21856
2.44692  3.22419
2.44407  3.22979
2.44115  3.23535
2.43815  3.24088
2.43509  3.24636
2.43196  3.25181
2.42876  3.25722
2.4255  3.26259
2.42216  3.26791
2.41876  3.2732
2.4153  3.27844
2.41177  3.28363
2.40817  3.28879
2.40451  3.29389
2.40078  3.29895
2.397  3.30397
2.39314  3.30893
2.38923  3.31385
2.38526  3.31871
2.38122  3.32353
2.37713  3.32829
2.37297  3.33301
2.36876  3.33767
2.36448  3.34227
2.36015  3.34683
2.35577  3.35132
2.35132  3.35577
2.34683  3.36015
2.34227  3.36448
2.33767  3.36876
2.33301  3.37297
2.32829  3.37713
2.32353  3.38122
2.31871  3.38526
2.31385  3.38923
2.30893  3.39314
2.30397  3.397
2.29895  3.40078
2.29389  3.40451
2.28879  3.40817
2.28363  3.41177
2.27844  3.4153
2.2732  3.41876
2.26791  3.42216
2.26259  3.4255
2.25722  3.42876
2.25181  3.43196
2.24636  3.43509
2.24088  3.43815
2.23535  3.44115
2.22979  3.44407
2.22419  3.44692
2.21856  3.4497
2.21289  3.45241
2.20719  3.45505
2.20145  3.45762
2.19569  3.46012
2.18989  3.46254
2.18406  3.46489
2.17821  3.46716
2.17232  3.46937
2.16641  3.4715
2.16047  3.47355
2.15451  3.47553
2.14852  3.47743
2.14251  3.47926
2.13648  3.48101
2.13042  3.48269
2.12434  3.48429
2.11825  3.48582
2.11214  3.48726
2.106  3.48863
2.09985  3.48993
2.09369  3.49114
2.08751  3.49228
2.08132  3.49334
2.07511  3.49433
2.0689  3.49523
2.06267  3.49606
2.05643  3.49681
2.05018  3.49748
2.04393  3.49807
2.03766  3.49858
2.0314  3.49901
2.02512  3.49937
2.01885  3.49964
2.01257  3.49984
2.00628  3.49996
2  3.5
1.99372  3.49996
1.98743  3.49984
1.98115  3.49964
1.97488  3.49937
1.9686  3.49901
1.96234  3.49858
1.95607  3.49807
1.94982  3.49748
1.94357  3.49681
1.93733  3.49606
1.9311  3.49523
1.92489  3.49433
1.91868  3.49334
1.91249  3.49228
1.90631  3.49114
1.90015  3.48993
1.894  3.48863
1.88786  3.48726
1.88175  3.48582
1.87566  3.48429
1.86958  3.48269
1.86352  3.48101
1.85749  3.47926
1.85148  3.47743
1.84549  3.47553
1.83953  3.47355
1.83359  3.4715
1.82768  3.46937
1.82179  3.46716
1.81594  3.46489
1.81011  3.46254
1.80431  3.46012
1.79855  3.45762
1.79281  3.45505
1.78711  3.45241
1.78144  3.4497
1.77581  3.44692
1.77021  3.44407
1.76465  3.44115
1.75912  3.43815
1.75364  3.43509
1.74819  3.43196
1.74278  3.42876
1.73741  3.4255
1.73209  3.42216
1.7268  3.41876
1.72156  3.4153
1.71637  3.41177
1.71121  3.40817
1.70611  3.40451
1.70105  3.40078
1.69603  3.397
1.69107  3.39314
1.68615  3.38923
1.68129  3.38526
1.67647  3.38122
1.67171  3.37713
1.66699  3.37297
1.66233  3.36876
1.65773  3.36448
1.65317  3.36015
1.64868  3.35577
1.64423  3.35132
1.63985  3.34683
1.63552  3.34227
1.63124  3.33767
1.62703  3.33301
1.62287  3.32829
1.61878  3.32353
1.61474  3.31871
1.61077  3.31385
1.60686  3.30893
1.603  3.30397
1.59922  3.29895
1.59549  3.29389
1.59183  3.28879
1.58823  3.28363
1.5847  3.27844
1.58124  3.2732
1.57784  3.26791
1.5745  3.26259
1.57124  3.25722
1.56804  3.25181
1.56491  3.24636
1.56185  3.24088
1.55885  3.23535
1.55593  3.22979
1.55308  3.22419
1.5503  3.21856
1.54759  3.21289
1.54495  3.20719
1.54238  3.20145
1.53988  3.19569
1.53746  3.18989
1.53511  3.18406
1.53284  3.17821
1.53063  3.17232
1.5285  3.16641
1.52645  3.16047
1.52447  3.15451
1.52257  3.14852
1.52074  3.14251
1.51899  3.13648
1.51731  3.13042
1.51571  3.12434
1.51418  3.11825
1.51274  3.11214
1.51137  3.106
1.51007  3.09985
1.50886  3.09369
1.50772  3.08751
1.50666  3.08132
1.50567  3.07511
1.50477  3.0689
1.50394  3.06267
1.50319  3.05643
1.50252  3.05018
1.50193  3.04393
1.50142  3.03766
1.50099  3.0314
1.50063  3.02512
1.50036  3.01885
1.50016  3.01257
1.50004  3.00628
1.5  3
1.50004  2.99372
1.50016  2.98743
1.50036  2.98115
1.50063  2.97488
1.50099  2.9686
1.50142  2.96234
1.50193  2.95607
1.50252  2.94982
1.50319  2.94357
1.50394  2.93733
1.50477  2.9311
1.50567  2.92489
1.50666  2.91868
1.50772  2.91249
1.50886  2.90631
1.51007  2.90015
1.51137  2.894
1.51274  2.88786
1.51418  2.88175
1.51571  2.87566
1.51731  2.86958
1.51899  2.86352
1.52074  2.85749
1.52257  2.85148
1.52447  2.84549
1.52645  2.83953
1.5285  2.83359
1.53063  2.82768
1.53284  2.82179
1.53511  2.81594
1.53746  2.81011
1.53988  2.80431
1.54238  2.79855
1.54495  2.79281
1.54759  2.78711
1.5503  2.78144
1.55308  2.77581
1.55593  2.77021
1.55885  2.76465
1.56185  2.75912
1.56491  2.75364
1.56804  2.74819
1.57124  2.74278
1.5745  2.73741
1.57784  2.73209
1.58124  2.7268
1.5847  2.72156
1.58823  2.71637
1.59183  2.71121
1.59549  2.70611
1.59922  2.70105
1.603  2.69603
1.60686  2.69107
1.61077  2.68615
1.61474  2.68129
1.61878  2.67647
1.62287  2.67171
1.62703  2.66699
1.63124  2.66233
1.63552  2.65773
1.63985  2.65317
1.64423  2.64868
1.64868  2.64423
1.65317  2.63985
1.65773  2.63552
1.66233  2.63124
1.66699  2.62703
1.67171  2.62287
1.67647  2.61878
1.68129  2.61474
1.68615  2.61077
1.69107  2.60686
1.69603  2.603
1.70105  2.59922
1.70611  2.59549
1.71121  2.59183
1.71637  2.58823
1.72156  2.5847
1.7268  2.58124
1.73209  2.57784
1.73741  2.5745
1.74278  2.57124
1.74819  2.56804
1.75364  2.56491
1.75912  2.56185
1.76465  2.55885
1.77021  2.55593
1.77581  2.55308
1.78144  2.5503
1.78711  2.54759
1.79281  2.54495
1.79855  2.54238
1.80431  2.53988
1.81011  2.53746
1.81594  2.53511
1.82179  2.53284
1.82768  2.53063
1.83359  2.5285
1.83953  2.52645
1.84549  2.52447
1.85148  2.52257
1.85749  2.52074
1.86352  2.51899
1.86958  2.51731
1.87566  2.51571
1.88175  2.51418
1.88786  2.51274
1.894  2.51137
1.90015  2.51007
1.90631  2.50886
1.91249  2.50772
1.91868  2.50666
1.92489  2.50567
1.9311  2.50477
1.93733  2.50394
1.94357  2.50319
1.94982  2.50252
1.95607  2.50193
1.96234  2.50142
1.9686  2.50099
1.97488  2.50063
1.98115  2.50036
1.98743  2.50016
1.99372  2.50004
2  2.5
2.00628  2.50004
2.01257  2.50016
2.01885  2.50036
2.02512  2.50063
2.0314  2.50099
2.03766  2.50142
2.04393  2.50193
2.05018  2.50252
2.05643  2.50319
2.06267  2.50394
2.0689  2.50477
2.07511  2.50567
2.08132  2.50666
2.08751  2.50772
2.09369  2.50886
2.09985  2.51007
2.106  2.51137
2.11214  2.51274
2.11825  2.51418
2.12434  2.51571
2.13042  2.51731
2.13648  2.51899
2.14251  2.52074
2.14852  2.52257
2.15451  2.52447
2.16047  2.52645
2.16641  2.5285
2.17232  2.53063
2.17821  2.53284
2.18406  2.53511
2.18989  2.53746
2.19569  2.53988
2.20145  2.54238
2.20719  2.54495
2.21289  2.54759
2.21856  2.5503
2.22419  2.55308
2.22979  2.55593
2.23535  2.55885
2.24088  2.56185
2.24636  2.56491
2.25181  2.56804
2.25722  2.57124
2.26259  2.5745
2.26791  2.57784
2.2732  2.58124
2.27844  2.5847
2.28363  2.58823
2.28879  2.59183
2.29389  2.59549
2.29895  2.59922
2.30397  2.603
2.30893  2.60686
2.31385  2.61077
2.31871  2.61474
2.32353  2.61878
2.32829  2.62287
2.33301  2.62703
2.33767  2.63124
2.34227  2.63552
2.34683  2.63985
2.35132  2.64423
2.35577  2.64868
2.36015  2.65317
2.36448  2.65773
2.36876  2.66233
2.37297  2.66699
2.37713  2.67171
2.38122  2.67647
2.38526  2.68129
2.38923  2.68615
2.39314  2.69107
2.397  2.69603
2.40078  2.70105
2.40451  2.70611
2.40817  2.71121
2.41177  2.71637
2.4153  2.72156
2.41876  2.7268
2.42216  2.73209
2.4255  2.73741
2.42876  2.74278
2.43196  2.74819
2.43509  2.75364
2.43815  2.75912
2.44115  2.76465
2.44407  2.77021
2.44692  2.77581
2.4497  2.78144
2.45241  2.78711
2.45505  2.79281
2.45762  2.79855
2.46012  2.80431
2.46254  2.81011
2.46489  2.81594
2.46716  2.82179
2.46937  2.82768
2.4715  2.83359
2.47355  2.83953
2.47553  2.84549
2.47743  2.85148
2.47926  2.85749
2.48101  2.86352
2.48269  2.86958
2.48429  2.87566
2.48582  2.88175
2.48726  2.88786
2.48863  2.894
2.48993  2.90015
2.49114  2.90631
2.49228  2.91249
2.49334  2.91868
2.49433  2.92489
2.49523  2.9311
2.49606  2.93733
2.49681  2.94357
2.49748  2.94982
2.49807  2.95607
2.49858  2.96234
2.49901  2.9686
2.49937  2.97488
2.49964  2.98115
2.49984  2.98743
2.49996  2.99372
2.5  3
