VARIABLES = X Y Z
ZONE N =5548, E =11080, DATAPACKING = POINT, ZONETYPE = FETRIANGLE
1  2  0
1  2  0
26  2  0
3.77778  6.44444  1.08857e-15
1.92593  6.81481  1.17929e-15
1.02292  6.99542  1.22352e-15
1  6.99606  1.22368e-15
1  4.59259  6.35002e-16
26  2  0
3.77778  6.44444  1.08857e-15
1.92593  6.81481  1.17929e-15
1.02292  6.99542  1.22352e-15
1  6.99606  1.22368e-15
1  4.59259  6.35002e-16
1  5.32558  -3.32558
1  6.554  -1.88633
1  5.48548  -3.48548
1  6.34508  -1.79979
1  3.79979  -4.34508
1  3.88633  -4.554
1  2  -4.70309
1  2  -4.92921
1  0.200207  -4.34508
1  0.113673  -4.554
1  -1.32558  -3.32558
1  -1.48548  -3.48548
1  -2.34508  -1.79979
1  -2.554  -1.88633
1  -2.92921  -6.03654e-16
1  -2.70309  -5.75962e-16
1  -2.34508  1.79979
1  -2.554  1.88633
1  -1.32558  3.32558
1  -1.48548  3.48548
1  0.200207  4.34508
1  0.113673  4.554
1  2  4.70309
1  2  4.92921
1  3.88633  4.554
1  3.79979  4.34508
1  5.32558  3.32558
1  5.48548  3.48548
1  6.34508  1.79979
1  6.554  1.88633
2.54321  6.33425  -1.7953
1.92593  6.44831  -1.84255
2.85185  5.8494  -2.57208
2.85185  6.27722  -1.77168
2.54321  5.7219  -2.85592
1.92593  5.40459  -3.40459
2.85185  5.27364  -3.27364
2.54321  4.85592  -3.7219
2.85185  4.57208  -3.8494
1.92593  3.84255  -4.44831
1  6.15333  -2.77516
2.54321  3.7953  -4.33425
2.85185  3.77168  -4.27722
2.54321  2.61235  -4.65122
1.92593  2  -4.81481
1  4.77516  -4.15333
1  2.97451  -4.89918
1  1.02549  -4.89918
1  5.53444  -2.36164
1  4.68601  -2.68601
1  5.50944  -1.45366
1  6.31283  -0.857875
1  -0.775164  -4.15333
1  4.36164  -3.53444
1  3.45366  -3.50944
1  -2.15333  -2.77516
1  2.8293  -4.16916
1  2  -3.79859
1  -2.89918  -0.974508
1  1.1707  -4.16916
1  0.546343  -3.50944
1  -2.89918  0.974508
1  5.13419  -0.623429
1  -0.361639  -3.53444
1  -0.686008  -2.68601
1  -2.15333  2.77516
1  -1.53444  -2.36164
1  -1.50944  -1.45366
1  -0.775164  4.15333
2.54321  2.61235  4.65122
1.92593  3.84255  4.44831
1.92593  2  4.81481
1  -2.16916  -0.829297
1  -1.79859  -4.65193e-16
1  1.02549  4.89918
2.54321  3.7953  4.33425
2.85185  3.77168  4.27722
2.85185  4.57208  3.8494
1  -2.16916  0.829297
1  -1.50944  1.45366
2.54321  4.85592  3.7219
1.92593  5.40459  3.40459
2.85185  5.27364  3.27364
1  2.97451  4.89918
2.54321  5.7219  2.85592
1.92593  6.44831  1.84255
2.85185  5.8494  2.57208
1  -1.53444  2.36164
1  -0.686008  2.68601
1  4.77516  4.15333
2.54321  6.33425  1.7953
2.85185  6.27722  1.77168
1  -0.361639  3.53444
1  0.546343  3.50944
1  6.15333  2.77516
1  1.1707  4.16916
1  2  3.79859
1  2.8293  4.16916
1  3.45366  3.50944
1  4.36164  3.53444
1  4.68601  2.68601
1  5.53444  2.36164
1  5.50944  1.45366
1  6.31283  0.857875
1  5.13419  0.623429
18.284  3.42574  -0.590561
19.9815  3.00084  -0.668742
19.9815  2.93048  -0.763622
17.9753  3.05821  -1.20666
19.9815  2.85115  -0.851147
11.4938  2.81185  -2.78533
10.5679  4.18243  -2.18243
12.2654  3.29489  -2.42256
10.2593  3.01194  -2.98108
3.31481  6.34167  -1.31703
3.16049  6.32548  -1.4683
3.31481  6.19168  -1.73625
6.40123  2  -3.91975
6.40123  2.51163  -3.88622
7.58436  1.83934  -3.67962
3.16049  6.09683  -2.02033
3.31481  6.00131  -2.13874
5.21811  3.16308  -3.99033
6.40123  2.89008  -3.81736
3.16049  5.79807  -2.53779
5.11523  2.1822  -4.17298
6.24691  1.48434  -3.91682
1.45087  6.33008  -2.31448
1.45087  5.79535  -3.11476
1  6.64279  -1.40838
1.45087  5.11476  -3.79535
1.45087  4.31448  -4.33008
4.60082  -1.0263  -3.0263
5.93827  -0.837157  -2.83716
5.93827  -1.33614  -2.22914
1.45087  3.42525  -4.69841
2.13169  1.58395  -4.7555
2.23457  1.3796  -4.71242
4.60082  -1.70645  -2.13992
1.45087  2.48125  -4.88618
1  6.01292  -2.14495
1.45087  1.51875  -4.88618
2.13169  0.367311  -4.48578
2.23457  0.47217  -4.50084
1.45087  0.574753  -4.69841
1.92593  0.15745  -4.44831
1.45087  -0.314476  -4.33008
1.45087  -1.79535  -3.11476
1.45087  -1.11476  -3.79535
1.92593  -1.40459  -3.40459
4.60082  -1.0263  3.0263
5.93827  -1.33614  2.22914
5.93827  -0.837157  2.83716
4.60082  -1.70645  2.13992
1.45087  -2.69841  -1.42525
1.45087  -2.33008  -2.31448
1.92593  -2.44831  -1.84255
6.40123  2.51163  3.88622
6.40123  2  3.91975
7.58436  1.83934  3.67962
1.45087  -2.88618  -0.481247
1.92593  -2.81481  -7.95242e-16
1.45087  -2.88618  0.481247
5.11523  2.1822  4.17298
6.24691  1.48434  3.91682
1.45087  -2.69841  1.42525
1.92593  -2.44831  1.84255
5.21811  3.16308  3.99033
6.40123  2.89008  3.81736
1.45087  -2.33008  2.31448
1.45087  -1.11476  3.79535
1.45087  -1.79535  3.11476
1.92593  -1.40459  3.40459
2.23457  1.3796  4.71242
2.13169  0.367311  4.48578
2.23457  0.47217  4.50084
1  4.76947  -0.84011
1  4.95234  -1.2229
2.13169  1.58395  4.7555
1.45087  0.574753  4.69841
1.92593  0.15745  4.44831
1.45087  -0.314476  4.33008
1  4.67379  -1.10752
1  4.55236  -1.36427
1  4.65704  -1.77538
1.45087  1.51875  4.88618
1  4.40635  -1.60787
1  4.23716  -1.83599
1  4.25962  -2.25962
1.45087  2.48125  4.88618
1  4.04643  -2.04643
1.45087  3.42525  4.69841
3.16049  5.79807  2.53779
1  0.0571211  -2.90772
1  0.661722  -3.23089
3.16049  6.09683  2.02033
3.31481  6.00131  2.13874
1.45087  4.31448  4.33008
3.31481  6.19168  1.73625
1  -0.472816  -2.47282
3.31481  6.34167  1.31703
3.16049  6.32548  1.4683
1.45087  5.11476  3.79535
1.45087  5.79535  3.11476
1.45087  6.33008  2.31448
1  6.64279  1.40838
1  6.01292  2.14495
1  -0.472816  2.47282
1  0.0571211  2.90772
1  0.661722  3.23089
1  4.23716  1.83599
1  4.04643  2.04643
1  4.25962  2.25962
1  4.65704  1.77538
1  4.40635  1.60787
1  4.55236  1.36427
1  4.95234  1.2229
1  4.67379  1.10752
1  4.76947  0.84011
22.9907  2.56667  -0.202758
22.9907  2.57594  -0.174708
22.9907  2.55604  -0.230319
22.142  2.75678  -0.150533
19.7243  3.24441  -0.163829
13.4486  4.42475  -0.64971
15.7119  3.74733  -1.08656
15.1289  3.57057  -1.5035
15.9691  2.58236  -1.91979
13.963  2.92127  -2.22415
13.963  2.46966  -2.36115
18.9784  0.914445  -0.890892
19.3128  1.57009  -1.26647
19.9815  1.14885  -0.851147
13.7058  3.84866  -1.62123
12.857  4.05895  -1.6341
13.2257  3.7054  -1.90236
12.0082  4.42345  -1.39918
12.094  4.1109  -1.81086
18.1982  0.457804  -0.237367
17.3066  0.586717  -1.01274
15.3004  -0.0263525  -0.687854
16.192  0.840092  -1.58191
10.7222  1.83343  -3.05101
9.95062  1.58103  -3.18242
11.3909  0.911383  -2.71144
12.2483  1.3075  -2.66173
12.6255  0.662551  -2.31653
12.4026  0.0355466  -1.88056
12.9599  0.345487  -2.01603
10.9108  0.865432  -2.79644
9.95062  0.771633  -2.96554
8.64746  3.16324  -3.26976
5.47531  6.02606  -0.800834
8.61317  5.44762  -0.453887
7.17284  5.47881  -1.44097
6.34979  5.14382  -2.3583
6.8642  4.52342  -2.87741
5.52675  4.56294  -3.19335
17.3066  1.94311  1.73775
16.6379  0.860138  1.4855
18.1982  1.56337  1.49802
18.9784  1.86235  1.39756
17.9753  2.89166  1.33446
7.51578  3.68312  -3.29147
8.09877  4.41878  -2.63963
7.84156  3.24211  -3.41267
10.6193  -0.0282346  -2.31276
11.2881  -0.548182  -1.47119
5.49246  5.72974  -1.70629
7.22428  3.24577  -3.54248
6.63272  3.7698  -3.4455
15.9691  1.69481  1.98282
16.6379  2.17675  1.86407
15.3004  2.73189  2.01086
6.94993  3.13247  -3.63782
4.65226  5.84961  -1.84649
10.3964  -0.631983  -1.67676
4.20645  5.96362  -1.81329
5.96399  3.75271  -3.60356
10.6193  -0.971315  -0.796161
9.95062  -0.668915  -1.78331
13.6286  0.388983  1.87795
14.2973  -0.190521  0.824454
14.6317  0.551223  1.75231
4.42078  5.45244  -2.58981
7.82442  0.560204  -3.33782
6.76132  0.803003  -3.65681
6.58985  1.02255  -3.75696
9.05898  -1.13029  -1.29661
9.95062  -1.20988  -2.38053e-15
6.76132  0.450337  -3.52188
1.45844  6.9024  -0.240839
7.72154  -0.900256  -2.22544
7.94444  -0.00622584  -3.00253
8.61317  -0.891324  -1.93192
6.48697  0.223198  -3.47467
5.93827  -0.22914  -3.33614
6.09259  0.597523  -3.72629
4.80658  0.550285  -3.98306
1.44554  6.62382  -1.65443
1.20801  6.58096  -1.8975
1  6.77839  -1.19692
1  6.75098  -1.4412
1.22512  6.3699  -2.33576
9.95062  -0.668915  1.78331
10.6193  -0.912882  0.98879
10.9537  -0.65393  1.41855
1.21334  6.25204  -2.54858
1.21334  5.98177  -2.95308
9.05898  -1.13029  1.29661
1.22512  5.83025  -3.1434
3.6749  1.51391  -4.43848
6.38409  -1.5186  -1.73518
6.607  -1.58336  -1.48428
1.01115  5.7031  -3.3563
1.02292  5.53229  -3.53229
4.7037  -0.288498  -3.59222
6.607  -1.71159  -1.1259
1.22512  5.1434  -3.83025
1.01115  5.3563  -3.7031
1.21334  4.95308  -3.98177
1.21334  4.54858  -4.25204
1.22512  4.33576  -4.3699
1.01115  4.13682  -4.51793
1.02292  3.91166  -4.61516
6.38409  -1.92318  -1.67596e-15
7.27572  -1.74486  -1.8521e-15
1.22512  3.43835  -4.74162
1.01115  3.6837  -4.70562
1.21334  3.20453  -4.80877
11.5967  3.21742  2.61076
12.6255  2.29121  2.659
12.8313  3.04317  2.41835
1.21334  2.72739  -4.90368
6.607  -1.71159  1.1259
5.93827  -2.01235  -1.58789e-15
1.22512  2.48567  -4.93112
5.04664  -2.11015  -0.81756
1.01115  2.24523  -4.99175
1.02292  2  -4.99542
1.22512  1.51433  -4.93112
1.01115  1.75477  -4.99175
6.38409  -1.5186  1.73518
6.607  -1.58336  1.48428
7.72154  -0.900256  2.22544
1.21334  1.27261  -4.90368
5.49246  -2.0392  0.71222
5.26955  -2.14387  -0.135656
2.08025  -0.526251  -4.06254
2.92044  -0.729433  -3.72248
1.21334  0.795467  -4.80877
2.02881  -0.575943  -4.04342
1.22512  0.561646  -4.74162
4.60082  -2.27984  2.47759e-15
1  5.26057  -2.95521
1.01115  0.316302  -4.70562
1.02292  0.0883374  -4.61516
1.22512  -0.33576  -4.3699
1.01115  -0.136822  -4.51793
1.21334  -0.548578  -4.25204
1.21334  -0.953079  -3.98177
1.22512  -1.1434  -3.83025
6.48697  0.223198  3.47467
5.93827  -0.22914  3.33614
6.76132  0.803003  3.65681
6.76132  0.450337  3.52188
7.82442  0.560204  3.33782
1.01115  -1.3563  -3.7031
1.02292  -1.53229  -3.53229
1.22512  -1.83025  -3.1434
1.01115  -1.7031  -3.3563
6.58985  1.02255  3.75696
1.21334  -1.98177  -2.95308
6.09259  0.597523  3.72629
4.80658  0.550285  3.98306
1.21334  -2.25204  -2.54858
1.22512  -2.3699  -2.33576
1.01115  -2.51793  -2.13682
1.02292  -2.61516  -1.91166
7.22428  3.24577  3.54248
8.13306  2.64609  3.51449
8.40741  3.02137  3.36701
1.22512  -2.74162  -1.43835
4.7037  -0.288498  3.59222
1.01115  -2.70562  -1.6837
1.21334  -2.80877  -1.20453
6.94993  3.13247  3.63782
1.21334  -2.90368  -0.727392
1.22512  -2.93112  -0.485673
1.01115  -2.99175  -0.245229
1.02292  -2.99542  -6.16852e-16
6.63272  3.7698  3.4455
6.8642  4.52342  2.87741
1.22512  -2.93112  0.485673
1.01115  -2.99175  0.245229
1.21334  -2.90368  0.727392
1.21334  -2.80877  1.20453
5.96399  3.75271  3.60356
5.52675  4.56294  3.19335
1.22512  -2.74162  1.43835
1.01115  -2.70562  1.6837
1.02292  -2.61516  1.91166
1.22512  -2.3699  2.33576
1.01115  -2.51793  2.13682
1.21334  -2.25204  2.54858
3.6749  1.51391  4.43848
1.21334  -1.98177  2.95308
1.22512  -1.83025  3.1434
2.08025  -0.526251  4.06254
2.92044  -0.729433  3.72248
2.02881  -0.575943  4.04342
1.01115  -1.7031  3.3563
1.02292  -1.53229  3.53229
1.22512  -1.1434  3.83025
1.01115  -1.3563  3.7031
1.21334  -0.953079  3.98177
5.38957  5.44395  2.26512
1.21334  -0.548578  4.25204
1.22512  -0.33576  4.3699
1.01115  -0.136822  4.51793
1.02292  0.0883374  4.61516
5.32099  5.76715  1.70687
7.96159  5.21208  1.64253
8.51029  5.3582  0.978826
1.22512  0.561646  4.74162
1.01115  0.316302  4.70562
4.42078  5.45244  2.58981
1.21334  0.795467  4.80877
1  4.62521  -0.79635
1.21334  1.27261  4.90368
1  4.58298  -0.924204
4.65226  5.84961  1.84649
1.22512  1.51433  4.93112
1  4.53452  -1.04983
1.01115  1.75477  4.99175
1.02292  2  4.99542
1  3.43533  -2.68531
1  3.77538  -2.65704
1  3.2229  -2.95234
4.20645  5.96362  1.81329
1.22512  2.48567  4.93112
1.01115  2.24523  4.99175
1  3.16521  -2.81307
1  2.62343  -3.13419
1  2  -3.19559
1.21334  2.72739  4.90368
1.21334  3.20453  4.80877
1  1.02861  -3.20225
1  1.672  -3.33023
1.22512  3.43835  4.74162
1  0.719411  -3.09162
1.01115  3.6837  4.70562
1.02292  3.91166  4.61516
1.22512  4.33576  4.3699
1.01115  4.13682  4.51793
1.21334  4.54858  4.25204
1.21334  4.95308  3.98177
1.22512  5.1434  3.83025
1.01115  5.3563  3.7031
1.02292  5.53229  3.53229
1.22512  5.83025  3.1434
1.01115  5.7031  3.3563
1.21334  5.98177  2.95308
1.21334  6.25204  2.54858
1  -0.259624  -2.25962
1.22512  6.3699  2.33576
1.44554  6.62382  1.65443
1  -1.09162  -1.28059
1.20801  6.58096  1.8975
1.45844  6.9024  0.240839
1  6.77839  1.19692
1  6.75098  1.4412
1  -1.09162  1.28059
1  5.26057  2.95521
1  -0.259624  2.25962
1  0.719411  3.09162
1  1.02861  3.20225
1  1.672  3.33023
1  2  3.19559
1  3.16521  2.81307
1  2.62343  3.13419
1  3.2229  2.95234
1  3.43533  2.68531
1  3.77538  2.65704
1  2.30572  -0.738085
1  2.73809  -0.305725
1  3.12981  -1.12981
1  4.53452  1.04983
1  4.58298  0.924204
1  4.62521  0.79635
24.4954  2.16719  -0.250211
22.4892  2.3901  -0.583825
22.9907  2.23032  -0.556039
22.6564  2.17308  -0.645938
22.9907  1.76968  -0.556039
21.9877  2  -0.802469
20.9846  2.38386  -0.926731
20.4273  2.16955  -1.10157
19.6471  2.28852  -1.23738
19.0898  2.47268  -1.29868
17.9753  2.89166  -1.33446
20.9846  1.61614  -0.926731
18.644  2.19203  -1.45861
20.9846  1.07327  -0.383865
15.8405  3.23694  -1.61201
17.6409  1.97265  -1.67159
17.158  1.61097  -1.72508
21.9877  1.30504  0.401235
21.4861  1.11457  -0.176123
22.9907  1.44396  0.230319
23.9938  1.89615  0.387563
24.4954  1.83281  0.250211
11.751  4.84369  -0.186385
19.9815  0.796296  -4.36215e-15
19.9815  1.14885  0.851147
16.0806  1.66616  -1.95559
19.3871  0.679125  -0.0672978
15.3747  1.76097  -2.11157
13.963  2  -2.40741
15.0775  1.32042  -2.0761
19.0898  0.686546  0.429937
21.4861  1.82388  0.885431
22.9907  2.23032  0.556039
10.3964  4.76811  -1.44099
24.4954  2.25021  0.167185
21.9877  2.70771  0.378281
21.9877  2.73094  0.331185
12.8256  2.37872  -2.60753
14.3716  1.00947  -2.10419
9.59053  4.94344  -1.45154
18.2725  0.655977  0.762994
12.2569  2.32406  -2.72946
13.4614  1.15518  -2.36113
12.0025  2.48279  -2.75755
17.418  0.40719  0.639498
16.7122  0.162045  0.269221
20.9846  2.14718  0.99223
11.8711  2.0411  -2.82549
9.09328  4.82507  -1.85808
21.3189  2.41408  0.839665
14.1301  0.0479589  -1.35103
14.1859  -0.268431  -0.661187
8.35597  5.13009  -1.62942
7.96159  5.24715  -1.57206
15.9691  0.0802123  0.582361
13.5729  -0.074056  -1.36954
20.483  2.52014  0.973108
14.5945  -0.27312  -0.190546
14.7989  -0.239926  0.036654
15.4119  -0.0125504  0.658775
14.2416  -0.349967  0.0897632
20.1958  2.79661  0.844362
19.6214  3.22475  0.356984
15.4676  0.308058  1.25483
12.1797  -0.451751  -1.2763
11.9568  -0.754675  -0.547939
19.2999  2.75054  1.11011
18.8584  2.79785  1.18472
17.9753  3.05821  1.20666
13.1271  -0.565977  0.210398
9.95062  -0.0363241  -2.48127
5.5096  5.233  -2.51833
4.21502  6.24851  -0.966213
18.7984  3.16155  0.851681
3.99211  6.30068  -0.937044
12.8856  -0.438744  0.96543
9.28189  -0.121171  -2.58465
9.5048  -0.332773  -2.33277
13.35  0.00689389  1.55835
12.4026  0.456412  2.23895
15.3004  1.64886  2.11091
11.0652  -0.984126  -0.13029
14.966  1.6247  2.17464
11.2881  -0.936087  0.192441
5.05521  4.46467  -3.38715
4.81944  4.41077  -3.48322
13.6286  0.870826  2.2016
11.1766  -0.90123  0.610063
11.4552  -0.877466  0.426832
11.771  -0.597794  1.1619
10.6193  -1.07448  0.100648
13.6286  1.13686  2.31885
14.1859  1.71432  2.34549
12.6255  1.94165  2.67426
4.16358  4.22477  -3.75813
13.1271  1.07997  2.40459
12.8856  0.871393  2.36765
3.63632  4.74214  -3.53356
7.24143  -0.316231  -2.95135
1.22469  6.94164  -0.364517
1.22736  6.93067  -0.485629
1  6.99722  -0.122675
9.3562  -1.32876  -2.2631e-15
1  6.98624  -0.367807
1  6.97412  -0.489908
8.31596  -1.34911  -1.13687
12.5141  1.17025  2.56639
9.05898  -1.3882  -2.20439e-15
7.87014  -1.31889  -1.46035
1.21446  6.74366  -1.43897
1  6.87015  -1.09363
1  6.84693  -1.21409
1  6.83322  -1.21066
1.20535  6.70864  -1.55553
1  6.84257  -1.08744
7.94444  -1.45562  -1.04825
3.91495  2.83019  -4.33829
1.10103  6.64611  -1.7922
1.08659  6.69142  -1.67862
1.02292  6.61516  -1.91166
1.00848  6.66338  -1.79886
8.46456  -1.50709  -2.08696e-15
7.49863  -1.5039  -1.18941
1.11224  6.38981  -2.3464
1.01115  6.51793  -2.13682
1.00526  6.46518  -2.24758
1.10636  6.33193  -2.45401
1  6.53971  -2.01231
1  6.60622  -1.90796
10.285  -0.293966  2.14853
10.4522  -0.0882582  2.30404
11.1023  0.0986569  2.29402
1.09458  6.20829  -2.66487
7.20142  -1.57316  -1.16961
1.09458  6.07246  -2.86815
3.26337  2.64269  -4.50168
1.10636  5.92496  -3.06307
1.11224  5.8477  -3.15772
1.00526  5.78525  -3.26518
9.95062  -0.0363241  2.48127
9.95062  0.771633  2.96554
8.31596  -1.34911  1.13687
8.61317  -0.891324  1.93192
9.5048  -0.332773  2.33277
1.11224  5.15772  -3.8477
1.00526  5.26518  -3.78525
1.10636  5.06307  -3.92496
1  5.42407  -3.59641
1  5.59641  -3.42407
1  5.52545  -3.52545
7.94444  -1.45562  1.04825
1.09458  4.86815  -4.07246
3.5463  0.533327  -4.24448
3.4177  -0.384998  -3.83539
1.09458  4.66487  -4.20829
9.28189  -0.121171  2.58465
13.037  3.68089  1.97387
14.2716  3.46822  1.82936
13.2428  4.15186  1.37089
6.16118  -1.86411  -0.900985
1.10636  4.45401  -4.33193
7.87014  -1.31889  1.46035
1.11224  4.3464  -4.38981
7.49863  -1.5039  1.18941
1.00526  4.24758  -4.46518
7.20142  -1.57316  1.16961
1.11224  3.44491  -4.76322
12.4198  3.79082  2.04203
1.00526  3.56808  -4.74664
1.10636  3.32789  -4.79838
1  3.78714  -4.63298
1  4.01231  -4.53971
1  3.90796  -4.60622
4.00926  -1.16043  -3.05866
10.7737  2.46326  3.00983
1.09458  3.09136  -4.86005
1.09458  2.85158  -4.90775
1.10636  2.60945  -4.94129
1.11224  2.48789  -4.95358
10.5222  2.85181  2.97606
10.0192  3.61817  2.75626
1.00526  2.36775  -4.9854
3.76063  -1.6711  -2.5113
4.60082  -2.134  -1.1077
1  5.92922  -1.97781
11.631  3.99481  2.06869
3.2005  -1.37309  -3.06838
9.98491  2.6363  3.13918
1.11224  1.51211  -4.95358
1.00526  1.63225  -4.9854
3.34053  -1.64005  -2.69965
1.10636  1.39055  -4.94129
1  1.87814  -4.96422
1  2.12186  -4.96422
1  2  -4.98574
1.09458  1.14842  -4.90775
4.15501  -2.22013  -1.13078
3.26337  -2.39238  -1.17693
3.70919  -2.45816  8.32293e-16
4.30361  -2.27335  -0.753508
7.24143  -0.316231  2.95135
7.94444  -0.00622584  3.00253
1.09458  0.908638  -4.86005
3.09191  -1.78148  -2.58681
1  4.62097  -3.72149
8.63603  1.58847  3.44832
1.10636  0.67211  -4.79838
1.11224  0.555093  -4.76322
2.869  -1.76039  -2.69466
9.45908  2.75902  3.21993
9.95062  1.58103  3.18242
1.00526  0.431921  -4.74664
2.55464  -1.65693  -2.935
3.00046  -2.03286  -2.2125
2.81756  -2.4219  -1.39422
4.89803  -2.10663  0.97329
1.11224  -0.346401  -4.38981
1.00526  -0.247584  -4.46518
7.97874  1.59459  3.58138
1.10636  -0.454006  -4.33193
1  -0.0123148  -4.53971
1  0.212862  -4.63298
1  0.0920394  -4.60622
4.60082  -2.134  1.1077
2.37174  -2.04002  -2.45154
1.09458  -0.664868  -4.20829
4.30361  -2.27335  0.753508
10.5908  4.48975  1.8163
1.09458  -0.868149  -4.07246
1.10636  -1.06307  -3.92496
11.6996  4.83137  0.404225
1.11224  -1.15772  -3.8477
4.15501  -2.22013  1.13078
3.26337  -2.39238  1.17693
3.41198  -2.5176  9.17405e-16
3.11477  -2.55335  -0.465188
1.00526  -1.26518  -3.78525
3.26337  -2.54733  9.59961e-16
3.04047  -2.59081  -0.100172
1.11224  -1.8477  -3.15772
1.00526  -1.78525  -3.26518
1.10636  -1.92496  -3.06307
1  -1.59641  -3.42407
1  -1.42407  -3.59641
1  -1.52545  -3.52545
2.81756  -2.63649  -9.71385e-16
8.79607  4.05804  2.75744
1.09458  -2.07246  -2.86815
2.96616  -2.58924  0.401506
2.81756  -2.4219  1.39422
1.09458  -2.20829  -2.66487
2.52035  -2.69593  -9.12671e-16
9.26475  4.64051  2.05681
1.10636  -2.33193  -2.45401
8.9904  4.47447  2.33454
1.11224  -2.38981  -2.3464
1.00526  -2.46518  -2.24758
3.76063  -1.6711  2.5113
8.1845  4.28535  2.73365
4.00926  -1.16043  3.05866
3.4177  -0.384998  3.83539
1.11224  -2.76322  -1.44491
8.83036  4.83657  1.93538
1.00526  -2.74664  -1.56808
1.10636  -2.79838  -1.32789
1  -2.63298  -1.78714
1  -2.53971  -2.01231
1  -2.60622  -1.90796
1.09458  -2.86005  -1.09136
3.00046  -2.03286  2.2125
3.34053  -1.64005  2.69965
1.09458  -2.90775  -0.851576
7.7444  4.3638  2.78265
3.09191  -1.78148  2.58681
1.10636  -2.94129  -0.60945
1.11224  -2.95358  -0.487885
1.00526  -2.9854  -0.367745
3.2005  -1.37309  3.06838
2.869  -1.76039  2.69466
2.37174  -2.04002  2.45154
1.11224  -2.95358  0.487885
1.00526  -2.9854  0.367745
1.10636  -2.94129  0.60945
1  -2.96422  0.121865
1  -2.96422  -0.121865
1  -2.98574  -6.10577e-16
2.55464  -1.65693  2.935
1.09458  -2.90775  0.851576
1.09458  -2.86005  1.09136
1.10636  -2.79838  1.32789
1.11224  -2.76322  1.44491
3.5463  0.533327  4.24448
1.00526  -2.74664  1.56808
1.11224  -2.38981  2.3464
1.00526  -2.46518  2.24758
1.10636  -2.33193  2.45401
1  -2.53971  2.01231
1  -2.63298  1.78714
1  -2.60622  1.90796
1.09458  -2.20829  2.66487
1.09458  -2.07246  2.86815
1.10636  -1.92496  3.06307
1.11224  -1.8477  3.15772
3.91495  2.83019  4.33829
5.05521  4.46467  3.38715
1.00526  -1.78525  3.26518
4.81944  4.41077  3.48322
1.11224  -1.15772  3.8477
1.00526  -1.26518  3.78525
1.10636  -1.06307  3.92496
1  -1.42407  3.59641
1  -1.59641  3.42407
1  -1.52545  3.52545
3.26337  2.64269  4.50168
1  2.52419  -3.5338
1.09458  -0.868149  4.07246
4.16358  4.22477  3.75813
1.09458  -0.664868  4.20829
1.10636  -0.454006  4.33193
1.11224  -0.346401  4.38981
1.00526  -0.247584  4.46518
1.11224  0.555093  4.76322
1.00526  0.431921  4.74664
1.10636  0.67211  4.79838
3.63632  4.74214  3.53356
1  0.212862  4.63298
1  -0.0123148  4.53971
1  0.0920394  4.60622
1.09458  0.908638  4.86005
1.09458  1.14842  4.90775
1.10636  1.39055  4.94129
1.11224  1.51211  4.95358
1.00526  1.63225  4.9854
4.54938  6.19343  0.905695
1.11224  2.48789  4.95358
1.00526  2.36775  4.9854
1.10636  2.60945  4.94129
1  2.12186  4.96422
1  1.87814  4.96422
1  2  4.98574
1.09458  2.85158  4.90775
4.21502  6.24851  0.966213
1.09458  3.09136  4.86005
1.10636  3.32789  4.79838
1.11224  3.44491  4.76322
3.99211  6.30068  0.937044
1.00526  3.56808  4.74664
1  4.14518  -1.23852
1  3.93571  -0.801796
1.11224  4.3464  4.38981
1.00526  4.24758  4.46518
1.10636  4.45401  4.33193
1  4.01231  4.53971
1  3.78714  4.63298
1  3.90796  4.60622
1  3.91901  -1.68293
1  3.18075  -2.04511
1.09458  4.66487  4.20829
1  0.7771  -2.95234
1.09458  4.86815  4.07246
1  3.19558  -2.4244
1  2.32791  -2.49075
1.10636  5.06307  3.92496
1.11224  5.15772  3.8477
1.00526  5.26518  3.78525
1  2.18666  -2.84781
1  1.31077  -2.57225
1.11224  5.8477  3.15772
1.00526  5.78525  3.26518
1.10636  5.92496  3.06307
1  5.59641  3.42407
1  5.42407  3.59641
1  5.52545  3.52545
1.09458  6.07246  2.86815
1.09458  6.20829  2.66487
1.10636  6.33193  2.45401
1.11224  6.38981  2.3464
1.01115  6.51793  2.13682
1  3.67536  -1.46925
1.00526  6.46518  2.24758
1.10103  6.64611  1.7922
1.02292  6.61516  1.91166
1.20535  6.70864  1.55553
1  0.535354  -2.53684
1.08659  6.69142  1.67862
1.21446  6.74366  1.43897
1.00848  6.66338  1.79886
1  6.53971  2.01231
1  6.60622  1.90796
1  -0.952341  -1.2229
1  6.87015  1.09363
1  6.83322  1.21066
1  6.84693  1.21409
1.22736  6.93067  0.485629
1.22469  6.94164  0.364517
1  6.84257  1.08744
1  4.62097  3.72149
1  -1.34634  -4.09808e-16
1  -1.19559  -3.91347e-16
1  6.98624  0.367807
1  6.97412  0.489908
1  6.99722  0.122675
1  3.66316  -0.330823
1  3.20513  -1.57056
1  0.378873  -2.11269
1  2  -2.24594
1  -0.829478  -0.758156
1  1.54713  -2.27671
1  0.934803  -1.84498
1  -0.952341  1.2229
1  5.92922  1.97781
1  0.305282  -1.69472
1  -0.306219  -1.3315
1  1.61036  -1.95887
1  -0.64021  -0.34759
1  2.61145  -1.47617
1  2.24331  -1.84815
1  2  -1.5978
1  -0.536841  1.46465
1  2.52419  3.5338
1  0.7771  2.95234
1  1.44361  -1.63908
1  -0.43347  0.320372
1  -0.572253  0.689233
1  0.00690386  1.52936
1  1.38855  -1.47617
1  0.870188  -1.12981
1  1.76621  -1.17532
1  2.33213  -0.221922
1  1.77808  -0.33213
1  1.86215  -0.514451
1  1.26191  -0.305725
24.9969  1.97381  -0.198901
25.2477  1.92907  -0.132696
23.9938  1.71628  -0.283716
24.4954  1.74979  -0.167185
22.2384  1.41845  -0.477263
22.9907  1.44396  -0.230319
23.7431  1.55078  -0.0442438
22.4892  1.3351  -0.225702
23.4923  1.49953  0.0328025
18.0682  1.1672  -1.35018
17.2323  1.03109  -1.46155
24.4954  2.05871  0.295144
25.2477  2.07093  0.132696
24.2446  2.12367  0.328578
13.0256  3.09949  -2.35043
17.0094  0.252631  -0.424213
9.97348  4.06628  -2.4504
18.2354  1.03682  1.21814
9.67627  3.99686  -2.58285
15.6348  -0.0727678  -0.0339186
9.33333  3.74992  -2.83706
8.87037  4.1151  -2.69506
8.61317  4.21578  -2.68
13.35  -0.450796  -0.628118
12.9599  -0.469617  -0.838322
12.6534  -0.616604  -0.527897
12.0682  -0.773909  0.263026
12.1797  -0.561283  1.03916
18.8498  3.42645  0.101311
12.2912  -0.138264  1.71614
12.0868  -0.139191  1.77959
14.586  2.67765  2.17991
1.11315  6.95902  -0.427045
1.11182  6.96415  -0.366178
1.10915  6.9542  -0.487946
1.11182  6.9402  -0.609316
1.11315  6.93209  -0.669858
3.77563  3.83075  -4.05034
14.2287  2.64508  2.26415
1.10348  6.81487  -1.26905
1.09892  6.79981  -1.32829
1  6.87373  -1.03178
1.08981  6.76751  -1.44621
1.02587  6.74273  -1.56679
1.04031  6.70013  -1.68173
13.7629  2.7717  2.32257
1.00126  6.68646  -1.74201
1  6.53127  -2.07547
1  6.56555  -2.02377
1  6.54412  -2.08136
1.05581  6.39976  -2.35172
1  6.50493  -2.13067
1.05286  6.37109  -2.40582
1.04697  6.31175  -2.51296
11.4633  1.18532  2.79085
1.0352  6.11714  -2.82468
1.0352  6.18522  -2.72279
1.04697  5.97171  -3.02187
1.05286  5.89543  -3.11769
1.05581  5.85642  -3.16489
1  5.65153  -3.3921
1  5.69245  -3.34664
1  5.66188  -3.40172
1  5.61688  -3.44356
10.938  1.19743  2.90353
1  5.3921  -3.65153
1  5.44356  -3.61688
1  5.40172  -3.66188
1.05581  5.16489  -3.85642
1  5.34664  -3.69245
10.6089  1.05895  2.93086
1.05286  5.11769  -3.89543
1.04697  5.02187  -3.97171
1.0352  4.72279  -4.18522
1.0352  4.82468  -4.11714
1.04697  4.51296  -4.31175
1.05286  4.40582  -4.37109
1.05581  4.35172  -4.39976
10.3621  1.62562  3.10508
1  4.07547  -4.53127
1  4.02377  -4.56555
1  4.08136  -4.54412
1  4.13067  -4.50493
1  3.73651  -4.67167
1  3.79731  -4.65935
1  3.74143  -4.68492
1.05581  3.44818  -4.77402
1  3.67885  -4.69208
1.05286  3.38965  -4.792
1.04697  3.27193  -4.8258
1.0352  2.91391  -4.90861
1.0352  3.0341  -4.8847
8.95896  0.663366  3.13517
1.04697  2.67164  -4.9452
1.05286  2.54995  -4.95903
8.62079  0.4413  3.10676
1.05581  2.48899  -4.96482
1  5.40932  -3.01466
12.454  4.35114  1.34606
1  2.18345  -4.9806
1  2.18397  -4.99472
1  2.12256  -4.99248
1  2.24452  -4.97738
1  1.81655  -4.9806
1  1.87744  -4.99248
1  1.81603  -4.99472
1.05581  1.51101  -4.96482
1  1.75548  -4.97738
1.05286  1.45005  -4.95903
11.9168  4.32667  1.58748
1.04697  1.32836  -4.9452
12.0597  4.45165  1.32768
1.0352  0.965901  -4.8847
1.0352  1.08609  -4.90861
1.04697  0.728066  -4.8258
1.05286  0.610346  -4.792
1.05581  0.551817  -4.77402
11.6653  4.55257  1.30528
1  3.39752  -4.41137
1  0.26349  -4.67167
1  0.258566  -4.68492
1  0.202689  -4.65935
1  0.321148  -4.69208
11.3071  4.5425  1.4734
1  -0.0754743  -4.53127
1  -0.0237692  -4.56555
1  -0.0813597  -4.54412
1.05581  -0.351722  -4.39976
1  -0.130672  -4.50493
1.05286  -0.405821  -4.37109
1.04697  -0.512961  -4.31175
1.0352  -0.824677  -4.11714
1.0352  -0.722786  -4.18522
1.04697  -1.02187  -3.97171
1.05286  -1.11769  -3.89543
1.05581  -1.16489  -3.85642
1  -1.3921  -3.65153
1  -1.44356  -3.61688
1  -1.40172  -3.66188
1  -1.34664  -3.69245
1  -1.65153  -3.3921
1  -1.61688  -3.44356
1  -1.66188  -3.40172
1.05581  -1.85642  -3.16489
1  -1.69245  -3.34664
1.05286  -1.89543  -3.11769
1.04697  -1.97171  -3.02187
1.0352  -2.11714  -2.82468
1.0352  -2.18522  -2.72279
1.04697  -2.31175  -2.51296
1.05286  -2.37109  -2.40582
1.05581  -2.39976  -2.35172
1  -2.53127  -2.07547
1  -2.50493  -2.13067
1  -2.54412  -2.08136
1  -2.56555  -2.02377
1  -2.67167  -1.73651
1  -2.65935  -1.79731
1  -2.68492  -1.74143
1.05581  -2.77402  -1.44818
1  -2.69208  -1.67885
1.05286  -2.792  -1.38965
1.04697  -2.8258  -1.27193
1.0352  -2.90861  -0.913911
1.0352  -2.8847  -1.0341
1.04697  -2.9452  -0.671639
1.05286  -2.95903  -0.549946
1.05581  -2.96482  -0.488992
1  -2.9806  -0.183446
1  -2.97738  -0.244523
1  -2.99472  -0.183966
1  -2.99248  -0.122559
1  -2.9806  0.183446
1  -2.99248  0.122559
1  -2.99472  0.183966
1.05581  -2.96482  0.488992
1  -2.97738  0.244523
1.05286  -2.95903  0.549946
1.04697  -2.9452  0.671639
1.0352  -2.8847  1.0341
1.0352  -2.90861  0.913911
1.04697  -2.8258  1.27193
1.05286  -2.792  1.38965
1.05581  -2.77402  1.44818
1  3.65705  -3.292
1  -2.67167  1.73651
1  -2.65935  1.79731
1  -2.69208  1.67885
1  -2.68492  1.74143
1  -2.53127  2.07547
1  -2.56555  2.02377
1  -2.54412  2.08136
1.05581  -2.39976  2.35172
1  -2.50493  2.13067
1.05286  -2.37109  2.40582
1.04697  -2.31175  2.51296
1.0352  -2.11714  2.82468
1.0352  -2.18522  2.72279
1.04697  -1.97171  3.02187
1.05286  -1.89543  3.11769
1.05581  -1.85642  3.16489
1  -1.65153  3.3921
1  -1.61688  3.44356
1  -1.69245  3.34664
1  -1.66188  3.40172
1  -1.3921  3.65153
1  -1.44356  3.61688
1  -1.40172  3.66188
1.05581  -1.16489  3.85642
1  -1.34664  3.69245
1.05286  -1.11769  3.89543
1.04697  -1.02187  3.97171
1  3.5215  -3.0227
3.77563  3.83075  4.05034
1.0352  -0.722786  4.18522
1.0352  -0.824677  4.11714
1.04697  -0.512961  4.31175
1.05286  -0.405821  4.37109
1.05581  -0.351722  4.39976
1  -0.0754743  4.53127
1  -0.0813597  4.54412
1  -0.0237692  4.56555
1  -0.130672  4.50493
1  1.56731  -3.50819
1  0.26349  4.67167
1  0.202689  4.65935
1  0.258566  4.68492
1.05581  0.551817  4.77402
1  0.321148  4.69208
1.05286  0.610346  4.792
1.04697  0.728066  4.8258
1.0352  1.08609  4.90861
1.0352  0.965901  4.8847
1.04697  1.32836  4.9452
1.05286  1.45005  4.95903
1.05581  1.51101  4.96482
1  1.81655  4.9806
1  1.81603  4.99472
1  1.87744  4.99248
1  1.75548  4.97738
1  2.18345  4.9806
1  2.12256  4.99248
1  2.18397  4.99472
1.05581  2.48899  4.96482
1  2.24452  4.97738
1.05286  2.54995  4.95903
1.04697  2.67164  4.9452
1.0352  2.91391  4.90861
1.0352  3.0341  4.8847
1.04697  3.27193  4.8258
1.05286  3.38965  4.792
1.05581  3.44818  4.77402
1  3.73651  4.67167
1  3.79731  4.65935
1  3.74143  4.68492