VARIABLES = X Y Z
ZONE N =6479, E =12932, DATAPACKING = POINT, ZONETYPE = FETRIANGLE
1  2  3
1  2  3
1  2  3
1  5.33333  3
1  6.44444  3
1  6.86111  3
1  6.95603  3
1  6.99639  3
1.02961  6.99408  3
24.2177  2.35647  3
25.536  2.0928  3
25.9737  2  3
13.732  2  3
1  2  3
1  5.33333  3
1  6.44444  3
1  6.86111  3
1  6.95603  3
1  6.99639  3
1.02961  6.99408  3
24.2177  2.35647  3
25.536  2.0928  3
25.9737  2  3
13.732  2  3
25.9339  2.01221  2.99494
25.536  2.08573  2.96449
25.6682  2  3
25.9339  2.00935  2.99065
25.536  2.06562  2.93438
25.6682  2  3
25.9339  2.00506  2.98779
25.536  2.03551  2.91427
25.6682  2  3
25.9339  2  2.98678
25.536  2  2.9072
25.6682  2  3
25.9339  1.99494  2.98779
25.536  1.96449  2.91427
25.6682  2  3
25.9339  1.99065  2.99065
25.536  1.93438  2.93438
25.6682  2  3
23.281  2  3
25.9339  1.98779  2.99494
25.536  1.91427  2.96449
25.6682  2  3
23.281  2  3
25.9339  1.98678  3
25.536  1.9072  3
25.6682  2  3
23.281  2  3
25.9339  1.98779  3.00506
25.536  1.91427  3.03551
25.6682  2  3
23.281  2  3
25.9339  1.99065  3.00935
25.536  1.93438  3.06562
25.6682  2  3
23.281  2  3
25.9339  1.99494  3.01221
25.536  1.96449  3.08573
25.6682  2  3
23.281  2  3
25.9339  2  3.01322
25.536  2  3.0928
25.6682  2  3
23.281  2  3
25.9339  2.00506  3.01221
25.536  2.03551  3.08573
25.6682  2  3
23.281  2  3
25.9339  2.00935  3.00935
25.536  2.06562  3.06562
25.6682  2  3
23.281  2  3
25.9339  2.01221  3.00506
25.536  2.08573  3.03551
25.6682  2  3
23.281  2  3
23.281  2  3
23.281  2  3
23.281  2  3
23.281  2  3
23.281  2  3
13.732  2  3
13.732  2  3
13.732  2  3
13.732  2  3
13.732  2  3
13.732  2  3
13.732  2  3
13.732  2  3
13.732  2  3
13.732  2  3
13.732  2  3
13.732  2  3
13.732  2  3
13.732  2  3
13.732  2  3
1  5.81416  2.24132
1  6.29861  1.21946
1  6.10613  1.29918
1  6.5256  1.12544
1  5.49016  -0.490163
1  6.56012  1.11114
1  5.81416  3.75868
2.17369  5.96217  0.352562
3.29457  5.21103  -0.211033
3.29457  6.19542  1.2622
2.16209  6.67597  2.06989
2.17369  4.64744  -0.962171
3.29457  3.7378  -1.19542
2.17369  2.92966  -1.6737
3.29457  2  -1.54109
2.17369  1.07034  -1.6737
3.29457  0.262202  -1.19542
2.17369  -0.647438  -0.962171
3.29457  -1.21103  -0.211033
2.17369  -1.96217  0.352562
3.29457  -2.19542  1.2622
2.17369  -2.6737  2.07034
3.29457  -2.54109  3
2.17369  -2.6737  3.92966
3.29457  -2.19542  4.7378
1  6.29861  4.78054
1  6.10613  4.70082
2.17369  -1.96217  5.64744
3.29457  -1.21103  6.21103
6.64561  5.7965  2.24483
2.17369  -0.647438  6.96217
3.29457  0.262202  7.19542
1  6.5256  4.87456
1  6.56012  4.88886
1  5.49016  6.49016
2.17369  1.07034  7.6737
3.29457  2  7.54109
2.17369  2.92966  7.6737
3.29457  3.7378  7.19542
2.17369  4.64744  6.96217
3.29457  5.21103  6.21103
2.17369  5.96217  5.64744
3.29457  6.19542  4.7378
2.16209  6.67597  3.93011
6.64561  5.7965  3.75517
24.8768  2.18677  2.8752
24.8768  2.15884  2.84116
24.8768  2.1248  2.81323
25.0966  2.06915  2.83307
24.8768  2.08596  2.79247
24.8768  2.04382  2.77969
25.0966  2.02358  2.82086
24.8768  2  2.77537
25.0966  1.97642  2.82086
25.0966  1.93085  2.83307
25.0966  1.93085  3.16693
25.0966  1.97642  3.17914
24.8768  2  3.22463
25.0966  2.02358  3.17914
24.8768  2.04382  3.22031
25.0966  2.06915  3.16693
24.8768  2.08596  3.20753
24.8768  2.1248  3.18677
24.8768  2.15884  3.15884
24.8768  2.18677  3.1248
1  5.45562  1.95175
1  5.21635  -0.216354
1  5.1427  -0.142697
1  4.52707  -0.782032
1  3.70082  -1.10613
1  5.39009  -0.390087
1  5.45562  4.04825
1  6.38185  0.657852
1  6.59464  1.09684
1  6.39833  0.649045
1  6.6119  1.08969
1  5.84072  -0.152001
1  5.51658  -0.516583
1  5.85517  -0.163853
1  5.52979  -0.529793
1.5783  6.79049  2.04711
1  5.152  -0.840725
1  5.16385  -0.855166
1  4.34215  -1.38185
1  3.88886  -1.56012
1  3.90316  -1.59464
1  4.35095  -1.39833
1  3.91031  -1.6119
1  3.44229  -1.75459
1  3.44771  -1.77246
1  2.487  -1.9446
1  2  -1.93584
1  2  -1.9732
1  2.48883  -1.9632
1  2  -1.99188
1  1.513  -1.9446
1  1.51117  -1.9632
1  0.557712  -1.75459
1  0.111137  -1.56012
1  0.0968391  -1.59464
1  0.552289  -1.77246
1  0.0896901  -1.6119
1  -0.342148  -1.38185
1  -0.350955  -1.39833
1  -1.152  -0.840725
1  -1.49016  -0.490163
1  -1.51658  -0.516583
1  -1.16385  -0.855166
1  -1.52979  -0.529793
1  -1.84072  -0.152001
1  -1.85517  -0.163853
1  -2.38185  0.657852
1  -2.56012  1.11114
1  -2.59464  1.09684
1  -2.39833  0.649045
1  -2.6119  1.08969
1  -2.75459  1.55771
1  -2.77246  1.55229
1  -2.9446  2.513
1  -2.93584  3
1  -2.9732  3
1  -2.9632  2.51117
1  -2.99188  3
1  -2.9446  3.487
1  -2.9632  3.48883
1  -2.75459  4.44229
1  -2.56012  4.88886
1  -2.59464  4.90316
4.41158  5.87241  1.09034
1  -2.77246  4.44771
1  -2.6119  4.91031
1  4.52707  6.78203
1  3.70082  7.10613
1  5.1427  6.1427
1  -2.38185  5.34215
1  -2.39833  5.35095
1  5.21635  6.21635
1  -1.84072  6.152
1  -1.49016  6.49016
1  -1.51658  6.51658
1  -1.85517  6.16385
1  -1.52979  6.52979
4.97009  5.70934  1.01731
1  -1.152  6.84072
1  -1.16385  6.85517
4.97009  5.25127  0.331753
4.41158  5.24621  0.153154
1  -0.342148  7.38185
1  0.111137  7.56012
1  0.0968391  7.59464
1  -0.350955  7.39833
1  0.0896901  7.6119
4.97009  4.66825  -0.251268
4.41158  4.39878  -0.590022
1  0.557712  7.75459
1  0.552289  7.77246
4.97009  3.98269  -0.709345
1  1.513  7.9446
1  2  7.93584
1  2  7.9732
1  1.51117  7.9632
1  2  7.99188
1  5.39009  6.39009
1  2.487  7.9446
1  2.48883  7.9632
1  3.44229  7.75459
1  3.88886  7.56012
1  3.90316  7.59464
1  3.44771  7.77246
1  3.91031  7.6119
1  4.34215  7.38185
1  4.35095  7.39833
1  5.152  6.84072
1  5.51658  6.51658
1  5.16385  6.85517
1  5.52979  6.52979
1  5.84072  6.152
1  5.85517  6.16385
1  6.38185  5.34215
1  6.59464  4.90316
1  6.39833  5.35095
1  6.6119  4.91031
7.4006  5.09297  0.933345
7.77809  5.03019  0.97529
7.21185  4.65705  0.342954
7.21185  5.12436  0.912373
7.4006  4.45269  0.203246
7.77809  4.02471  -0.0301929
7.21185  4.08763  -0.124355
7.4006  3.64526  -0.33626
7.77809  2.71098  -0.574356
1.5783  6.79049  3.95289
9.63463  5.25731  2.67918
12.2616  4.53852  1.94851
18.2396  3.52225  2.69721
4.41158  5.87241  4.90966
4.97009  4.66825  6.25127
4.41158  4.39878  6.59002
4.41158  5.24621  5.84685
4.97009  3.98269  6.70934
4.97009  5.25127  5.66825
4.97009  5.70934  4.98269
7.4006  3.64526  6.33626
7.77809  4.02471  6.03019
7.77809  2.71098  6.57436
7.4006  4.45269  5.79675
7.21185  4.08763  6.12436
7.21185  4.65705  5.65705
7.77809  5.03019  5.02471
7.4006  5.09297  5.06665
7.21185  5.12436  5.08763
15.5827  3.73233  1.8425
14.2543  3.66109  1.33891
9.63463  5.25731  3.32082
18.2396  3.52225  3.30279
12.2616  4.53852  4.05149
17.2433  3.3538  1.88896
17.5754  3.40096  2.06391
18.2396  3.2905  2.13771
18.2396  3.43393  2.40605
17.5754  3.26679  1.88906
18.2396  2.86229  1.7095
18.2396  3.09748  1.90252
17.2433  3.23838  1.76162
21.2287  2.93593  2.81383
18.2396  0.447928  3
17.5754  0.443339  2.35521
17.2433  0.282311  3.34167
15.5827  3.73233  4.1575
14.2543  3.66109  4.66109
22.4447  2.35553  2.38421
21.2287  2.79345  2.46984
21.2287  2.73766  2.39462
21.2287  2.88163  2.63482
21.2287  2.84159  2.55016
21.2287  2.91318  2.72299
21.2287  2.67477  2.32523
17.2433  3.3538  4.11104
17.5754  3.26679  4.11094
18.2396  3.09748  4.09748
18.2396  2.86229  4.2905
17.2433  3.23838  4.23838
18.2396  3.2905  3.86229
17.5754  3.40096  3.93609
18.2396  3.43393  3.59395
24.5473  2.24158  2.83858
24.5473  2.2246  2.81568
24.5473  2.20545  2.79455
25.3163  1.8863  2.92403
21.2287  2.93593  3.18617
22.4447  2.35553  3.61579
21.2287  2.91318  3.27701
21.2287  2.67477  3.67477
21.2287  2.73766  3.60538
21.2287  2.79345  3.53016
21.2287  2.84159  3.44984
21.2287  2.88163  3.36518
25.0966  1.81931  3
25.3163  1.8863  3.07597
24.5473  2.20545  3.20545
24.5473  2.2246  3.18432
24.5473  2.24158  3.16142
1  5.36816  2.15632
1  5.32271  1.99207
1  5.26925  1.83024
1  5.33623  1.61809
1  5.20792  1.67124
1  5.18472  1.29773
1  5.00253  0.993774
1  3.43506  -0.464548
1  2.75868  -0.814165
1  3.48821  -0.592865
1  2.39479  -1.00838
1  2  -0.888889
1  2.78578  -0.950385
1  2  -1.02778
1  1.60521  -1.00838
1  0.830798  -0.854343
1  0.458636  -0.721181
1  -0.314876  -0.464457
1  0.405486  -0.849498
1  5.55638  0.0813503
1  3.30527  -1.30291
1  5.20792  4.32876
1  5.18472  4.70227
1  5.00253  5.00623
1  5.33623  4.38191
1  5.26925  4.16976
1  5.65135  0.00341639
1  4.66357  -0.986321
1  5.32271  4.00793
1  5.36816  3.84368
1  6.46022  1.15252
1  3.43506  6.46455
1  3.48821  6.59286
1  2.75868  6.81416
1  6.97322  2.75568
1  0.458636  6.72118
1  0.405486  6.8495
1  -0.314876  6.46446
1  6.69733  1.31927
1.2864  6.84775  2.03572
1  6.27567  0.437262
1  1.60521  7.00838
1  0.830798  6.85434
1  2  6.88889
1  6.28368  0.43246
1  6.00389  0.0305135
1  2  7.02778
1  6.01139  0.0249492
1  3.41226  -1.65558
1  2.39479  7.00838
1.31555  6.35395  0.672767
1.05281  6.60964  1.09062
1  2.78578  6.95039
1  4.96949  -1.00389
1  2.47686  -1.84165
1  4.97505  -1.01139
1  4.56274  -1.27567
1  4.56754  -1.28368
1.6016  6.22593  0.56016
1  3.21123  -1.83548
1  3.2135  -1.84455
1  2.73143  -1.93092
1  2.7328  -1.94016
1  1.26857  -1.93092
1  1.2672  -1.94016
1  0.788774  -1.83548
1  0.786505  -1.84455
1  -0.562738  -1.27567
1  -0.56754  -1.28368
1  -0.969487  -1.00389
1  -0.975051  -1.01139
1  -2.00389  0.0305135
1  -2.01139  0.0249492
1  -2.27567  0.437262
1  -2.28368  0.43246
1  -2.83548  1.78877
1  -2.84455  1.7865
1  3.30527  7.30291
1  -2.93092  2.26857
1  -2.94016  2.2672
1  -2.93092  3.73143
1  -2.94016  3.7328
1  -2.83548  4.21123
1  -2.84455  4.2135
1  -2.27567  5.56274
1  -2.28368  5.56754
1  -2.00389  5.96949
1  -2.01139  5.97505
1  5.55638  5.91865
1  -0.969487  7.00389
1  -0.975051  7.01139
3.66691  0.750111  -1.28818
3.66691  1.90256  -1.46556
1  -0.562738  7.27567
1  -0.56754  7.28368
3.85308  0.994192  -1.31368
3.85308  1.85507  -1.42701
3.66691  -0.317162  -0.818565
3.85308  0.171962  -1.03457
1  0.788774  7.83548
1  5.65135  5.99658
1  4.66357  6.98632
1  3.41226  7.65558
1  2.47686  7.84165
5.28209  4.79936  -0.054969
1  0.786505  7.84455
1  1.26857  7.93092
1  1.2672  7.94016
5.28209  4.37666  -0.394224
5.43809  4.55651  -0.221174
5.43809  4.22847  -0.456245
5.8406  5.17174  0.510801
4.53741  1.16257  -1.21004
1  2.73143  7.93092
1  2.7328  7.94016
1  3.21123  7.83548
1  3.2135  7.84455
4.60033  0.107034  -0.838556
4.16508  -1.21968  0.0497079
1  6.46022  4.84748
1  4.56274  7.27567
1  4.56754  7.28368
4.60033  -0.605459  -0.3955
1  4.96949  7.00389
1  4.97505  7.01139
6.58785  4.80453  0.315249
6.92873  5.36387  1.20197
1  6.00389  5.96949
1  6.01139  5.97505
1  6.27567  5.56274
1  6.28368  5.56754
6.55897  3.9441  -0.367285
6.27585  4.87919  0.303345
1  6.69733  4.68073
1  6.97322  3.24432
1.6016  6.22593  5.43984
1.31555  6.35395  5.32723
1.2864  6.84775  3.96428
1.05281  6.60964  4.90938
3.66691  -0.317162  6.81857
7.02826  2.65888  -0.736704
3.66691  0.750111  7.28818
3.85308  0.171962  7.03457
8.70636  5.25655  1.83479
8.39693  4.98971  1.14088
3.85308  0.994192  7.31368
7.15409  1.34549  -0.71192
6.84209  1.37585  -0.780405
6.84209  0.650325  -0.586
6.84209  2.12537  -0.829531
3.66691  1.90256  7.46556
7.58934  2.48061  -0.65063
7.77809  1.28902  -0.574356
7.65226  2.55822  -0.62684
8.70636  4.96665  1.22186
8.39693  4.40666  0.430431
3.85308  1.85507  7.42701
7.15409  0.407075  -0.416039
6.84209  -0.0233353  -0.253788
7.77809  -0.0247102  -0.0301929
8.70636  4.56275  0.67726
4.60033  0.107034  6.83856
4.16508  -1.21968  5.95029
4.60033  -0.605459  6.3955
8.39693  3.65961  -0.104903
8.70636  4.06036  0.221923
7.15409  -0.422784  0.112639
4.53741  1.16257  7.21004
8.39693  2.79945  -0.428644
8.70636  3.4788  -0.126654
5.28209  4.37666  6.39422
5.28209  4.79936  6.05497
5.43809  4.55651  6.22117
5.43809  4.22847  6.45624
11.3859  4.66228  1.79374
10.9481  4.72135  1.7129
10.9481  4.41796  1.20672
7.15409  -0.422784  5.88736
7.77809  -1.03019  5.02471
7.15409  -1.08753  5.16191
7.77809  -0.0247102  6.03019
6.84209  -0.61924  5.79653
6.84209  -0.0233353  6.25379
11.3859  4.25936  1.14579
12.2616  3.9429  1.0571
10.9481  4.02165  0.769458
7.15409  0.407075  6.41604
7.77809  1.28902  6.57436
6.84209  0.650325  6.586
5.8406  5.17174  5.4892
11.3859  3.70247  0.624203
12.2616  3.05149  0.461477
10.9481  3.54764  0.417914
7.15409  1.34549  6.71192
6.84209  1.37585  6.7804
6.84209  2.12537  6.82953
11.3859  3.02956  0.264525
7.02826  2.65888  6.7367
6.58785  4.80453  5.68475
6.55897  3.9441  6.36729
6.27585  4.87919  5.69666
7.58934  2.48061  6.65063
7.65226  2.55822  6.62684
6.92873  5.36387  4.79803
8.39693  3.65961  6.1049
8.39693  2.79945  6.42864
8.70636  3.4788  6.12665
8.39693  4.40666  5.56957
8.70636  4.06036  5.77808
12.7044  0.772158  0.641337
12.2616  0.948509  0.461477
12.2616  0.0570983  1.0571
8.39693  4.98971  4.85912
8.70636  4.56275  5.32274
8.70636  4.96665  4.77814
12.9258  0.275921  1.03406
12.9258  0.692584  0.735488
8.70636  5.25655  4.16521
13.3687  0.550991  0.930601
13.2579  1.02477  0.645576
15.3613  3.25815  1.2841
15.9148  3.06513  1.28713
16.0256  2.95952  1.25103
14.0329  -0.357063  2.58439
14.2543  0.0467592  1.69489
13.5901  -0.149465  1.75901
13.5901  -0.481988  3
13.9222  -0.414272  3.07904
11.3859  3.70247  5.3758
11.3859  3.02956  5.73548
10.9481  3.54764  5.58209
12.2616  3.9429  4.9429
12.2616  3.05149  5.53852
10.9481  4.02165  5.23054
12.7044  0.772158  5.35866
12.2616  0.0570983  4.9429
12.2616  0.948509  5.53852
12.9258  0.275921  4.96594
15.5827  1.46076  0.987539
15.2506  1.30895  0.964218
15.2506  1.04913  1.07184
16.247  1.25353  1.19787
16.247  1.74539  1.06608
13.8115  -0.390866  3.47557
13.5901  -0.149465  4.24099
14.2543  0.0467592  4.30511
14.5864  -0.108959  2.12644
14.2543  0.338905  1.33891
12.9258  0.692584  5.26451
14.2543  -0.349143  3
11.3859  4.25936  4.85421
10.9481  4.41796  4.79328
16.7451  2.81866  1.33991
16.247  2.74647  1.19787
15.1399  0.276824  1.67776
14.4757  -0.304861  3
14.9185  -0.216298  3
16.7451  2.59498  1.24726
16.247  2.25461  1.06608
13.3687  0.550991  5.0694
11.3859  4.66228  4.20626
10.9481  4.72135  4.2871
13.2579  1.02477  5.35442
14.5864  -0.108959  3.87356
14.2543  0.338905  4.66109
17.2433  2.37906  1.29017
17.7415  2.63208  1.47402
18.2396  2.59395  1.56607
18.2396  2.30279  1.47775
18.2396  2  1.44793
16.247  0.378129  1.9163
15.8041  0.116052  2.21964
16.247  0.0493924  3
15.5827  0.267672  1.8425
15.1399  0.276824  4.32224
16.9112  0.714648  1.71465
16.6898  0.387422  2.06898
17.354  1.1354  1.50247
15.2506  1.04913  4.92816
15.5827  0.267672  4.1575
16.247  1.25353  4.80213
17.9075  1.10081  1.65427
16.247  0.378129  4.0837
15.8041  0.116052  3.78036
16.4684  0.392221  4.02427
18.0182  0.733527  2.0282
18.2396  0.902519  1.90252
16.5791  0.75767  4.41661
16.9112  0.425771  3.90888
16.5791  0.953203  4.56664
16.247  1.74539  4.93392
15.5827  2.53924  5.01246
16.247  2.25461  4.93392
15.2506  2.69105  5.03578
15.2506  2.95087  4.92816
15.3613  3.25815  4.7159
17.4647  0.766883  4.18045
15.9148  3.06513  4.71287
16.0256  2.95952  4.74897
16.247  2.74647  4.80213
17.1326  1.32132  4.63848
17.9075  0.654271  3.89919
17.7415  0.952169  4.27679
17.5754  1.15754  4.45918
16.7451  2.59498  4.75274
16.7451  2.81866  4.66009
18.2396  0.902519  4.09748
21.4484  2.26425  2.12887
21.6681  1.83098  2.15027
17.2433  2.37906  4.70983
17.7415  2.63208  4.52598
18.2396  2.59395  4.43393
18.2396  2.30279  4.52225
23.3312  2.46225  2.73312
22.3079  1.82449  2.28274
21.6681  1.38738  2.38738
21.2872  1.12918  2.6393
21.6681  1.15027  2.83098
21.0967  1.13513  2.53772
22.6278  1.82544  2.34855
22.049  1.39468  2.49208
22.8109  1.44764  2.68109
23.3775  1.90892  2.48347
22.049  1.22854  3.17103
21.6681  1.27963  3.48133
21.2872  1.18371  3.47128
21.0967  1.37788  3.75806
21.6681  1.83098  3.84973
23.8439  1.78439  2.62655
22.2395  1.31494  3.3104
21.1407  1.8104  3.95319
20.877  1.80011  4.00492
22.3079  1.58976  3.61397
22.6278  1.5231  3.4769
21.4484  2.26425  3.87113
25.0966  1.84977  2.89962
24.2614  1.74364  3.23491
23.9537  1.61247  3.13155
23.8439  1.62655  3.21561
24.3347  1.67483  3.07209
23.3775  1.73775  3.45423
25.0966  1.84977  3.10038
23.3312  2.46225  3.26688
1  4.60255  0.397454
1  4.79143  0.709135
1  4.55344  0.446559
1  4.47171  0.272888
1  3.76774  -0.307205
1  4.83002  0.435018
1  4.74986  0.25014
1  5.23349  0.839449
1  4.56498  0.169978
1  4.16055  -0.233493
1  4.51114  -0.059833
1  4.19913  -0.291234
1  3.86595  -0.490938
1  0.511787  -0.592865
1  1.5984  -1.07749
1  -1.75  3
1  -1.60983  2.28196
1  -1.61111  3
1  -1.46455  1.56494
1  1.39881  -1.05288
1  -1.59286  1.51179
1  -1.88889  3
1  4.77547  -0.381921
1  -0.848069  0.151931
1  -0.74986  0.25014
1  -0.946278  0.0537217
1  -1.72118  1.45864
1  4.06236  -0.858406
1  1.58479  -1.21571
1  0.618088  6.33623
1  1.30906  6.47361
1  2  6.61111
1  0.564937  6.46455
1  -0.553441  5.55344
1  0.770322  -1.05371
1  -0.65165  5.65165
1  -1.59286  4.48821
1  -1.46455  4.43506
1  -0.74986  5.74986
1  -1.72118  4.54136
1  -2.02778  3
1  4.45523  5.45523
1  4.79143  5.29086
1  4.55344  5.55344
1  3.32876  6.20792
1  4.82931  4.89048
1  -0.392039  -0.579939
1  -1.27456  0.31264
1  -1.8495  1.40549
1  -1.97781  1.35234
1  -2.16667  3
1  3.38191  6.33623
1  4.17316  -1.06569
1  2  6.75
1  3.5443  -1.31603
1  2.45278  -1.59713
1  1.34404  -1.4221
1  2.44074  -1.47488
1  2  -1.44444
1  0.299185  -1.10613
1  0.511787  6.59286
1  4.20211  -1.11986
1  -1.09359  -0.0935922
1  -2.10613  1.29918
1  -1.1427  -0.142697
1  1.33503  -1.48286
1  -0.848069  5.84807
1  -0.946278  5.94628
1  4.47171  5.72711
1  3.76774  6.3072
1  4.60255  5.60255
1  0.473245  -1.26699
1  3.58569  -1.4317
1  -1.8495  4.59451
1  6.97729  2.63285
1.01331  6.99583  2.87736
1.01206  6.97352  2.51015
1  6.96591  2.5109
1.00454  6.98555  2.63224
1  -2.30556  3
1  -2.10613  4.70082
1  -2.44444  3
1  -1.97781  4.64766
1  6.78029  1.54991
1  6.74465  1.43258
1  6.70613  1.31612
1.14046  6.87638  2.03003
1.02366  6.78017  1.54995
1.02217  6.66083  1.20212
1.00759  6.7462  1.43207
1  6.462  0.754019
1  6.56896  0.974718
1  6.40656  0.644642
1  4.56498  5.83002
1  4.16055  6.23349
1  4.74986  5.74986
1  3.62707  -1.54737
1  6.21839  0.328731
1  6.22234  0.326233
1  4.83002  5.56498
1  5.23349  5.16055
1  6.08224  0.124962
1  6.08606  0.122273
1  -1.27456  5.68736
1  4.51934  -1.20326
1.15499  6.32346  0.550788
1.01778  6.51673  0.863745
1  5.78255  -0.262849
1  5.86239  -0.169778
1.15499  6.19808  0.341596
1  5.61958  -0.446129
1  1.39881  7.05288
1  1.5984  7.07749
1  3.86595  6.49094
1  5.26285  -0.782548
1  5.16978  -0.862386
1  5.44613  -0.619583
1  4.19913  6.29123
1  4.87504  -1.08224
1  4.87773  -1.08606
1  4.67127  -1.21839
1  4.67377  -1.22234
1  4.51114  6.05983
1.30385  5.60497  -0.376419
1.22017  5.10206  -0.865081
1.05281  5.52807  -0.528066
1  4.24598  -1.462
1  4.35536  -1.40656
1.3272  5.25358  -0.709998
1  4.02528  -1.56896
1  -0.392039  6.57994
1  0.770322  7.05371
1  3.56696  -1.74326
1  3.79865  -1.66284
1  3.45042  -1.7814
1  1.28095  -1.84741
1  1.29898  -1.7259
1  3.09398  -1.87173
1  3.09501  -1.87628
1  2.85362  -1.91954
1  2.85442  -1.92414
1  1.58479  7.21571
1.60937  5.05333  -0.804375
1  2.36748  -1.98185
1  2.48975  -1.97249
1.88764  5.51975  -0.296604
1  2.12265  -1.99621
1  1.63252  -1.98185
1  1.51025  -1.97249
1  1.87735  -1.99621
1  0.32576  7.04197
1  0.299185  7.10613
1  -1.1427  6.1427
1  2  7.30556
1  2  7.44444
1  1.14638  -1.91954
1  1.14558  -1.92414
1  0.906017  -1.87173
1  0.904994  -1.87628
1  0.43304  -1.74326
1  0.549578  -1.7814
1  0.201346  -1.66284
1  -0.245981  -1.462
1  -0.355358  -1.40656
1  -0.025282  -1.56896
1  -0.671269  -1.21839
1  -0.673767  -1.22234
1  -0.875038  -1.08224
1  -0.877727  -1.08606
1  -1.26285  -0.782548
1  -1.16978  -0.862386
1  -1.44613  -0.619583
1  1.34404  7.4221
1  2.44074  7.47488
1  0.473245  7.26699
1  -1.78255  -0.262849
1  -1.61958  -0.446129
1  -1.86239  -0.169778
1  -2.08224  0.124962
1  -2.08606  0.122273
1  -2.21839  0.328731
1  -2.22234  0.326233
1  1.33503  7.48286
1  -2.462  0.754019
1  -2.40656  0.644642
1.00611  -2.40853  0.643592
1.01778  -2.51673  0.863745
1.05281  -2.60964  1.09062
1  -2.56896  0.974718
1  4.77547  6.38192
1  4.06236  6.85841
1  -2.74326  1.43304
1  -2.7814  1.54958
1  -2.66284  1.20135
1  -2.87173  1.90602
1  -2.87628  1.90499
1  -2.91954  2.14638
1  -2.92414  2.14558
1  -2.98185  2.63252
1  -2.97249  2.51025
1.00611  -2.97471  2.51003
1.01778  -2.99043  2.75484
1.05281  -2.98944  3
1  -2.99621  2.87735
1  -2.98185  3.36748
1  -2.99621  3.12265
1  -2.97249  3.48975
1.00611  -2.97471  3.48997
1.01778  -2.99043  3.24516
1  -2.91954  3.85362
1  3.5443  7.31603
1  -2.92414  3.85442
1  -2.87173  4.09398
1  -2.87628  4.09501
1  -2.74326  4.56696
1  -2.7814  4.45042
1  -2.66284  4.79865
1  4.17316  7.06569
1  2.45278  7.59713
3.57382  2.80293  -1.41278
1  -2.462  5.24598
1  -2.56896  5.02528
1  -2.40656  5.35536
1.00611  -2.40853  5.35641
1.05281  -2.60964  4.90938
1.01778  -2.51673  5.13625
1  -2.21839  5.67127
1  -2.22234  5.67377
1  -2.08224  5.87504
1  -2.08606  5.87773
1  4.20211  7.11986
1  3.58569  7.4317
1  -1.78255  6.26285
1  -1.86239  6.16978
1  -1.61958  6.44613
1  -1.26285  6.78255
1  -1.16978  6.86239
1  -1.44613  6.61958
1  -0.875038  7.08224
1  -0.877727  7.08606
1  -0.671269  7.21839
1  -0.673767  7.22234
1  1.28095  7.84741
1  1.29898  7.7259
1  -0.245981  7.462
1  -0.355358  7.40656
1  -0.025282  7.56896
1  3.62707  7.54737
1  0.43304  7.74326
1  0.549578  7.7814
1  0.201346  7.66284
4.6397  2.87909  -1.18063
4.41158  3.38787  -1.08854
4.4745  2.28157  -1.29588
1  0.906017  7.87173
1  0.904994  7.87628
1  1.14638  7.91954
1  1.14558  7.92414
4.75375  2.62349  -1.20326
1  1.63252  7.98185
1  1.51025  7.97249
1  1.87735  7.99621
1  2.36748  7.98185
1  2.48975  7.97249
1  2.12265  7.99621
1  4.51934  7.20326
6.2431  5.59022  1.34963
1  2.85362  7.91954
1  2.85442  7.92414
5.13786  2.76931  -1.10089
1  3.09398  7.87173
1  3.09501  7.87628
3.58474  -2.16631  1.34483
6.25402  5.39102  0.975869
5.72826  4.22174  -0.391403
1  3.56696  7.74326
1  3.45042  7.7814
1  3.79865  7.66284
6.46073  5.4761  1.21449
5.01461  1.45217  -1.16117
5.87334  4.21807  -0.359088
5.90609  3.04014  -0.881845
5.22175  2.13597  -1.15342
6.00751  4.45714  -0.154436
1  4.24598  7.462
1  4.02528  7.56896
1  4.35536  7.40656
6.5031  5.28106  0.892921
6.61673  5.43863  1.20996
1  4.67127  7.21839
5.25321  1.59329  -1.12938
5.03558  0.82671  -1.02538
1  4.67377  7.22234
1  4.87504  7.08224
1  4.87773  7.08606
6.09097  4.04706  -0.415309
5.25321  1.1905  -1.06963
1  5.26285  6.78255
1  5.16978  6.86239
6.24697  4.01251  -0.399575
1  5.44613  6.61958
1  5.78255  6.26285
1  5.86239  6.16978
1  5.61958  6.44613
4.60033  -1.64272  0.753135
1  6.08224  5.87504
1  6.08606  5.87773
1  6.21839  5.67127
3.58474  -2.16631  4.65517
1  6.22234  5.67377
1.30385  5.60497  6.37642
1.22017  5.10206  6.86508
1.05281  5.52807  6.52807
1.3272  5.25358  6.71
1  6.462  5.24598
1  6.40656  5.35536
1.15499  6.19808  5.6584
1  6.56896  5.02528
1.15499  6.32346  5.44921
1.01778  6.51673  5.13625
1.60937  5.05333  6.80438
4.81796  -1.79952  1.12628
4.60033  -1.98893  1.44879
1.02217  6.66083  4.79788
1.02366  6.78017  4.45005
1  6.74465  4.56742
1  6.70613  4.68388
1  6.78029  4.45009
1.00759  6.7462  4.56793
6.70053  3.05988  -0.711527
1  6.96591  3.4891
1  6.97729  3.36715
1.14046  6.87638  3.96997
1.01206  6.97352  3.48985
1.01331  6.99583  3.12264
1.00454  6.98555  3.36776
1.88764  5.51975  6.2966
6.53009  1.66062  -0.879164
6.37409  1.8074  -0.920454
6.37409  1.42406  -0.882698
5.18067  -1.97115  1.7479
5.25321  -1.72145  1.16479
6.53009  1.15719  -0.801679
4.60033  -1.64272  5.24687
4.81796  -1.79952  4.87372
4.60033  -1.98893  4.55121
3.57382  2.80293  7.41278
5.25321  -1.72145  4.83521
5.18067  -1.97115  4.2521
9.17049  5.07714  1.636
6.68609  -1.31322  1.01413
6.21809  -0.304504  -0.215932
6.37409  -1.43096  1.09329
6.42609  -1.66387  1.62102
6.84209  -1.04826  0.678549
6.84209  -1.41775  1.26795
6.53009  -1.88564  2.74532
7.98437  1.33565  -0.54135
4.4745  2.28157  7.29588
8.08751  1.35867  -0.524626
5.03558  0.82671  7.02538
9.41081  4.43391  0.745193
9.10139  3.75331  0.110635
5.01461  1.45217  7.16117
6.42609  -1.79222  3.97191
5.90609  -2.01878  3
4.6397  2.87909  7.18063
4.41158  3.38787  7.08854
4.75375  2.62349  7.20326
9.2989  3.59862  0.0671692
5.25321  1.1905  7.06963
8.68882  1.77356  -0.454823
7.57009  -1.1372  1.06495
7.46609  -1.18976  1.1117
7.77809  -1.57436  2.28902
7.77809  -1.03019  0.97529
5.25321  1.59329  7.12938
10.2914  4.93121  1.86931
5.22175  2.13597  7.15342
6.68609  -1.59245  4.41963
6.37409  -1.60133  4.56124
6.37409  -1.43096  4.90671
6.84209  -1.68999  4.032
8.48254  0.416262  -0.125097
5.13786  2.76931  7.10089
8.83477  1.27524  -0.355673
6.53009  -1.18976  5.2335
6.21809  -0.304504  6.21593
6.84209  -1.44258  4.68216
7.15409  -1.65455  3.92248
7.77809  -1.57436  3.71098
8.83477  0.634511  -0.149802
8.48254  -0.338608  0.39129
8.83477  0.0462525  0.177115
10.5959  3.76709  0.476339
10.4198  3.35528  0.194123
10.4198  3.62378  0.340475
6.53009  1.15719  6.80168
5.72826  4.22174  6.3914
6.53009  1.66062  6.87916
6.37409  1.42406  6.8827
6.37409  1.8074  6.92045
5.87334  4.21807  6.35909
5.90609  3.04014  6.88185
6.09097  4.04706  6.41531
6.00751  4.45714  6.15444
6.24697  4.01251  6.39957
6.70053  3.05988  6.71153
6.25402  5.39102  5.02413
6.2431  5.59022  4.65037
8.48254  -0.338608  5.60871
8.48254  -0.934106  4.91454
6.5031  5.28106  5.10708
6.46073  5.4761  4.78551
7.98437  1.33565  6.54135
12.483  3.91159  1.08841
8.08751  1.35867  6.52463
8.83477  -0.466924  5.38749
6.61673  5.43863  4.79004
8.48254  0.416262  6.1251
12.5937  3.89593  1.10407
12.7598  3.87245  1.12755
8.83477  0.0462525  5.82289
11.8238  1.95361  0.165135
11.1797  1.74166  0.0472125
11.9697  1.96939  0.194112
12.2616  2  0.252322
12.8151  3.60529  0.907948
12.9258  3.00065  0.584209
8.83477  0.634511  6.1498
11.8238  1.40145  0.228657
11.4716  0.359428  0.601761
11.0765  1.08697  0.158383
11.0765  0.550145  0.391107
11.0765  0.0690333  0.724089
11.9697  1.24422  0.297642
8.83477  1.27524  6.35567
13.2579  3.802  1.198
13.2579  2.97523  0.645576
8.68882  1.77356  6.45482
11.4716  -0.205381  1.10809
12.6306  1.92223  0.327256
12.8151  1.88498  0.365536
13.1472  2.33552  0.45144
13.0919  2  0.418378
12.9627  1.58461  0.425847
13.7008  2.94134  0.727398
13.2579  2  0.45159
13.3687  2  0.47373
13.5901  2  0.518012
13.9222  2.9244  0.768309
9.10139  3.75331  5.88937
14.0329  2.61946  0.688129
14.2543  2.89898  0.829675
14.2543  2  0.650857
13.4794  1.24699  0.61177
14.5864  2.91936  0.9106
9.41081  4.43391  5.25481
9.2989  3.59862  5.93283
14.4757  2.62886  0.782587
12.7782  -0.420408  1.935
12.2616  -0.538523  1.94851
12.2616  -0.747678  3
13.1472  -0.570551  3
9.17049  5.07714  4.364
13.7377  0.899335  0.808396
14.8078  2.93123  0.96446
14.9185  2.09667  0.785812
15.2506  2.95087  1.07184
14.0329  1.38054  0.688129
13.9222  1.0756  0.768309
13.0365  -0.361589  1.92998
11.4716  0.359428  5.39824
11.4716  -0.205381  4.89191
11.0765  0.0690333  5.27591
11.0765  0.550145  5.60889
11.0765  1.08697  5.84162
13.221  -0.292219  1.8696
14.2543  1.10102  0.829675
14.4757  1.4359  0.765235
11.1797  1.74166  5.95279
14.5864  1.17266  0.872487
10.5959  3.76709  5.52366
10.4198  3.35528  5.80588
10.4198  3.62378  5.65952
12.7782  -0.420408  4.065
12.2616  -0.538523  4.05149
14.8078  1.12837  0.938237
15.5827  2.51725  0.981777
11.8238  1.40145  5.77134
15.4167  2.20747  0.893528
11.9697  1.24422  5.70236
12.2616  2  5.74768
13.0365  -0.361589  4.07002
10.2914  4.93121  4.13069
15.841  2.533  1.03937
11.8238  1.95361  5.83486
15.7488  2.30083  0.971949
13.221  -0.292219  4.1304
15.8041  2.2441  0.975491
11.9697  1.96939  5.80589
15.5827  0.786435  1.30647
12.6306  1.92223  5.67274
12.9258  3.00065  5.41579
14.2543  -0.247989  3.68192
12.8151  1.88498  5.63446
12.9627  1.58461  5.57415
15.0292  -0.0777133  2.29471
13.0919  2  5.58162
13.4794  1.24699  5.38823
13.7377  0.899335  5.1916
13.2579  2  5.54841
13.1472  2.33552  5.54856
13.2579  2.97523  5.35442
13.3687  2  5.52627
13.5901  2  5.48199
12.483  3.91159  4.91159
13.9222  1.0756  5.23169
12.5937  3.89593  4.89593
15.0292  -0.0777133  3.70529
12.8151  3.60529  5.09205
12.7598  3.87245  4.87245
14.0329  1.38054  5.31187
17.2987  1.73526  1.27998
14.2543  1.10102  5.17032
14.2543  2  5.34914
15.8041  -0.039171  3
15.9518  -0.00964988  3
14.5864  1.08064  5.0894
14.4757  1.37114  5.21741
18.9869  3.1266  2.16446
13.7008  2.94134  5.2726
13.2579  3.802  4.802
14.8078  1.06877  5.03554
14.9185  1.90333  5.21419
14.0329  2.61946  5.31187
13.9222  2.9244  5.23169
14.2543  2.89898  5.17032
19.7341  3.1052  2.40926
19.7341  2.59074  1.8948
14.4757  2.5641  5.23477
16.9665  0.217439  2.7057
18.2396  1.40605  1.56607
14.5864  2.82734  5.12751
14.8078  2.87163  5.06176
15.4167  1.79253  5.10647
18.6206  1.18004  1.77285
19.0015  0.706849  2.46436
20.4814  2.88652  2.34251
18.811  1.32223  1.73198
19.1187  1.73151  1.65019
19.3825  0.899543  2.2647
20.4814  2.85319  2.29981
18.2396  0.566072  2.40605
19.5583  1.62601  1.76714
19.9392  1.80255  1.80404
19.7341  2.47957  1.84222
19.7536  1.47204  1.86778
20.1443  1.22782  2.1195
20.4423  1.98788  1.88852
18.2396  0.566072  3.59395
19.0015  0.889546  3.85208
16.9389  1.94071  4.81126
18.7476  0.555031  3.12642
19.1285  0.633868  2.85038
17.4094  1.73863  4.69813
19.0015  0.612278  3.1827
20.7964  1.78029  1.98273
19.192  0.639127  3.04455
17.5201  2.04933  4.69527
17.6584  1.89089  4.66474
20.0174  0.875632  2.59076
18.2396  1.40605  4.43393
17.8522  1.92892  4.62801
18.2396  2  4.55207
18.4936  1.19336  4.26617
19.6364  0.742097  3.19361
19.9539  0.796597  2.88148
20.5253  0.988404  3.41902
18.6206  1.34723  4.32368
20.3348  0.896561  2.74271
18.8745  1.31455  4.24942
19.3825  1.2647  4.10046
20.5888  0.971455  2.66332