VARIABLES = X Y Z
ZONE N =3011, E =5896, DATAPACKING = POINT, ZONETYPE = FETRIANGLE
90.945  -2.95433  3.05505
90.9531  -2.22501  3.00279
90.961  -1.5073  2.863
90.9688  -0.811681  2.63771
90.9761  -0.148285  2.33022
90.983  0.473212  1.94499
90.9894  1.04375  1.48766
90.9951  1.555  0.964883
91  1.99952  0.384292
91.0041  2.37081  -0.245649
91.0074  2.66348  -0.915756
91.0097  2.87324  -1.61625
91.0111  2.99704  -2.33693
91.0115  3.03308  -3.06728
91.0109  2.98082  -3.79664
91.0093  2.84104  -4.51439
91.0068  2.61576  -5.21006
91.0034  2.30828  -5.87349
90.9991  1.92308  -6.49503
90.9941  1.46578  -7.0656
90.9883  0.943036  -7.57688
90.9818  0.362481  -8.02143
90.9748  -0.267422  -8.39275
90.9674  -0.937486  -8.68543
90.9596  -1.63794  -8.8952
90.9516  -2.35858  -9.01901
90.9435  -3.08888  -9.05505
90.9354  -3.8182  -9.00279
90.9274  -4.5359  -8.863
90.9196  -5.23152  -8.63771
90.9123  -5.89492  -8.33022
90.9054  -6.51642  -7.94499
90.899  -7.08695  -7.48766
90.8934  -7.5982  -6.96488
90.8884  -8.04272  -6.38429
90.8843  -8.41402  -5.75435
90.881  -8.70668  -5.08424
90.8787  -8.91644  -4.38375
90.8773  -9.04024  -3.66307
90.8769  -9.07628  -2.93272
90.8775  -9.02403  -2.20336
90.8791  -8.88424  -1.48561
90.8816  -8.65897  -0.789943
90.885  -8.35149  -0.126505
90.8893  -7.96629  0.49503
90.8943  -7.50898  1.0656
90.9002  -6.98624  1.57688
90.9066  -6.40569  2.02143
90.9136  -5.77578  2.39275
90.921  -5.10572  2.68543
90.9288  -4.40526  2.8952
90.9368  -3.68463  3.01901
90.945  -2.95433  3.05505
0.95606  -1.95457  3.04394
15.2815  12  3
20.042  15.3333  3
22.211  16.8521  3
22.4168  16.9962  3
22.4404  17  3
22.4758  17  3
56.0349  17  3
91  16.9929  3
91  13.324  3
0.964149  -1.22659  2.99178
0.972109  -0.510205  2.85225
0.979824  0.184141  2.62737
0.987181  0.84632  2.32044
0.994074  1.46668  1.93592
1.0004  2.03617  1.47942
1.00607  2.54648  0.957609
1.011  2.99018  0.378083
1.01512  3.3608  -0.250703
1.01837  3.65292  -0.919579
1.02069  3.8623  -1.61879
1.02207  3.98587  -2.33815
1.02246  4.02184  -3.06715
1.02189  3.96969  -3.79518
1.02034  3.83016  -4.51161
1.01784  3.6053  -5.206
1.01443  3.29838  -5.86822
1.01015  2.91389  -6.48862
1.00508  2.45742  -7.05814
0.999285  1.93564  -7.56849
0.992846  1.35615  -8.01222
0.98586  0.727402  -8.38285
0.978429  0.0585665  -8.675
0.97066  -0.640604  -8.88439
0.962668  -1.35992  -9.00797
0.954568  -2.08888  -9.04394
0.946479  -2.81686  -8.99178
0.938519  -3.53325  -8.85225
0.930805  -4.22759  -8.62737
0.923447  -4.88977  -8.32044
0.916554  -5.51013  -7.93592
0.910226  -6.07962  -7.47942
0.904556  -6.58993  -6.95761
0.899626  -7.03363  -6.37808
0.895508  -7.40425  -5.7493
0.892263  -7.69637  -5.08042
0.889936  -7.90575  -4.38121
0.888563  -8.02932  -3.66185
0.888163  -8.0653  -2.93285
0.888743  -8.01314  -2.20482
0.890293  -7.87361  -1.48839
0.892792  -7.64875  -0.793998
0.896202  -7.34183  -0.131777
0.900474  -6.95734  0.488618
0.905546  -6.50087  1.05814
0.911343  -5.97909  1.56849
0.917782  -5.3996  2.01222
0.924768  -4.77085  2.38285
0.9322  -4.10202  2.675
0.939968  -3.40285  2.88439
0.947961  -2.68354  3.00797
0.95606  -1.95457  3.04394
15.2815  12  3
20.042  15.3333  3
22.211  16.8521  3
22.4168  16.9962  3
22.4404  17  3
22.4758  17  3
56.0349  17  3
91  16.9929  3
91  13.324  3
20.0523  16.2587  -1.37818
20.0506  16.1095  -5.85061
20.0371  14.8944  -10.1574
56.0445  17.8654  -1.87272
56.0409  17.5395  -6.81095
56.0242  16.0414  -11.5277
55.9955  13.4581  -15.7488
20.0125  12.684  -14.0482
55.9564  9.93981  -19.2291
19.9783  9.60674  -17.2969
55.9092  5.69088  -21.7661
19.9365  5.84148  -19.7148
19.8895  1.60703  -21.1612
55.8566  0.958297  -23.2126
19.8399  -2.8505  -21.5522
55.8017  -3.9829  -23.4843
55.7477  -8.84555  -22.5656
19.7908  -7.27207  -20.865
19.7449  -11.4007  -19.1395
55.6977  -13.347  -20.5098
19.705  -14.9965  -16.4761
55.6546  -17.2258  -17.4364
55.6209  -20.2563  -13.524
19.6733  -17.8504  -13.0295
19.6516  -19.7966  -9
55.5986  -22.2626  -9
55.589  -23.1279  -4.12728
19.6414  -20.722  -4.62182
55.5926  -22.8021  0.810946
19.643  -20.5728  -0.149386
55.6093  -21.304  5.5277
19.6565  -19.3577  4.15738
19.6811  -17.1473  8.04819
19.9886  10.5332  10.4761
19.9487  6.93744  13.1395
55.638  -18.7207  9.74885
20.0203  13.3871  7.02948
55.6771  -15.2024  13.2291
19.7153  -14.07  11.2969
55.7243  -10.9535  15.7661
19.7571  -10.3047  13.7148
55.7768  -6.22089  17.2126
19.8042  -6.07029  15.1612
55.8317  -1.27969  17.4843
19.8537  -1.61276  15.5522
55.8858  3.58295  16.5656
19.9028  2.80881  14.865
55.9358  8.08445  14.5098
55.9789  11.9632  11.4364
56.0126  14.9937  7.52402
8.15599  8.37285  0.0207493
8.15781  8.53612  -0.617162
8.15919  8.66057  -1.26377
8.16014  8.74577  -1.91671
8.16064  8.79138  -2.5736
17.6684  14.2652  -7.07901
73.5401  17.5786  0.566381
73.5432  17.8597  -1.91924
73.543  17.8391  -4.42063
73.5394  17.5173  -6.9013
73.5325  16.8987  -9.32508
73.5224  15.9925  -11.6566
73.5093  14.812  -13.8619
73.4934  13.3742  -15.9089
73.4748  11.7002  -17.7675
73.4538  9.81434  -19.4109
73.4308  7.74419  -20.8149
73.4061  5.51991  -21.9591
8.10447  3.73592  6.20657
8.09818  3.16943  6.54218
73.38  3.17393  -22.8269
8.11053  4.28112  5.83736
8.11633  4.80303  5.4359
73.353  0.740457  -23.4056
12.019  1.78751  9.75502
8.08497  1.9809  7.10786
8.09167  2.58371  6.84298
73.3254  -1.74501  -23.6867
73.2976  -4.24624  -23.6661
73.27  -6.72676  -23.3442
73.2431  -9.15039  -22.7256
73.2172  -11.4818  -21.8194
73.1927  -13.687  -20.6387
73.1699  -15.7338  -19.2009
73.1493  -17.5923  -17.5268
17.5926  7.44888  10.9548
73.131  -19.2356  -15.6408
73.1154  -20.6395  -13.5705
91.0145  8.96318  -0.450061
73.1027  -21.7837  -11.3461
91.0159  9.09526  -1.17834
91.0169  9.18314  -1.91326
73.0931  -22.6514  -9
73.0866  -23.23  -6.56638
73.0835  -23.5111  -4.08076
73.0837  -23.4906  -1.57937
73.0873  -23.1687  0.901297
73.0942  -22.5501  3.32508
73.1043  -21.6439  5.65662
73.1174  -20.4634  7.86193
73.1334  -19.0256  9.90885
73.152  -17.3516  11.7675
73.1729  -15.4657  13.4109
73.1959  -13.3956  14.8149
73.2206  -11.1713  15.9591
73.2467  -8.82533  16.8269
73.2737  -6.39187  17.4056
73.3013  -3.90639  17.6867
73.3291  -1.40516  17.6661
73.3567  1.07535  17.3442
73.3836  3.49898  16.7256
73.4095  5.83038  15.8194
73.434  8.03556  14.6387
73.4568  10.0824  13.2009
73.4774  11.9409  11.5268
73.4957  13.5842  9.64082
73.5113  14.9881  7.57055
73.524  16.1323  5.34613
90.9686  4.84027  6.39853
90.9622  4.25849  6.85606
90.9748  5.39336  5.90671
90.9806  5.91575  5.38239
4.59223  6.46758  -5.51117
8.16071  8.79725  -3.23206
4.59037  6.30041  -6.02157
4.58818  6.10273  -6.52094
4.58565  5.87526  -7.00747
4.5828  5.61883  -7.47937
9.68951  4.68534  -12.7137
14.0648  8.77694  -12.6964
14.0509  7.52846  -13.9448
4.47232  -4.3244  5.59825
6.41178  -6.903  5.73626
6.40601  -7.42166  5.42928
6.41774  -6.36676  6.01137
4.47813  -3.80116  5.71923
6.42387  -5.81488  6.25359
82.2867  17.3259  1.78606
4.48402  -3.27156  5.80839
6.43015  -5.24939  6.46205
6.43656  -4.67234  6.63599
82.2914  17.7551  -0.689707
82.2926  17.8569  -1.94251
10.8416  -9.71038  7.16577
82.2928  17.8828  -3.19917
82.2909  17.7071  -5.70572
82.2887  17.5061  -6.94647
82.2856  17.2306  -8.17282
82.277  16.4602  -10.5645
82.2716  15.9681  -11.7211
82.2653  15.4071  -12.8459
82.2507  14.0867  -14.9836
82.2423  13.3322  -15.9889
82.2332  12.5183  -16.9467
82.2133  10.7248  -18.7063
82.2025  9.7516  -19.5018
15.8578  -6.98172  12.1794
82.1912  8.73219  -20.237
82.1671  6.56965  -21.5162
82.1545  5.43442  -22.0556
82.1416  4.26869  -22.5255
82.1148  1.86286  -23.2501
82.1012  0.631537  -23.5021
82.0873  -0.612757  -23.6793
82.0595  -3.12206  -23.807
82.0455  -4.37792  -23.757
82.0316  -5.62846  -23.6313
82.0042  -8.09541  -23.1547
81.9908  -9.30281  -22.8056
81.9776  -10.4869  -22.3843
81.9523  -12.7682  -21.3311
81.9402  -13.8569  -20.7032
81.9285  -14.9058  -20.0107
81.9067  -16.8687  -18.4422
90.9395  6.88031  -16.1738
91.0159  9.08857  -4.86564
90.9563  8.39595  -14.8843
81.8966  -17.7756  -17.5719
81.8872  -18.6283  -16.6485
81.8702  -20.1588  -14.6558
81.8627  -20.8311  -13.5938
81.8559  -21.438  -12.4931
81.8447  -22.4472  -10.192
81.8403  -22.8458  -9
81.8367  -23.1717  -7.78606
81.8319  -23.6009  -5.31029
81.8308  -23.7027  -4.05749
81.8305  -23.7286  -2.80083
81.8324  -23.5529  -0.294278
81.8347  -23.3519  0.946472
81.8377  -23.0764  2.17282
81.8463  -22.306  4.56449
91.0161  6.2804  -6.33676
91.0174  9.22649  -2.65215
91.0174  9.22514  -3.39231
91.0169  9.17911  -4.13104
81.8518  -21.8139  5.72108
91.0137  6.06197  -6.89232
81.858  -21.2529  6.84585
91.0109  5.8104  -7.43369
91.0077  5.52661  -7.95887
81.8727  -19.9325  8.98364
91.0042  5.21162  -8.46596
81.8811  -19.178  9.98885
91.0004  4.86659  -8.95311
81.8901  -18.3642  10.9467
90.9962  4.49278  -9.41854
90.9918  4.09156  -9.86054
81.91  -16.5706  12.7063
81.9208  -15.5974  13.5018
81.9322  -14.578  14.237
81.9562  -12.4155  15.5162
81.9688  -11.2802  16.0556
81.9818  -10.1145  16.5255
82.0085  -7.70868  17.2501
82.0222  -6.47735  17.5021
82.036  -5.23306  17.6793
82.0639  -2.72375  17.807
82.0778  -1.4679  17.757
82.0917  -0.217352  17.6313
82.1191  2.2496  17.1547
82.1326  3.457  16.8056
82.1457  4.64112  16.3843
82.1711  6.92234  15.3311
82.1832  8.01111  14.7032
82.1948  9.05999  14.0107
82.2166  11.0229  12.4422
82.2267  11.9298  11.5719
82.2362  12.7825  10.6485
82.2532  14.313  8.65582
82.2606  14.9853  7.59381
82.2674  15.5922  6.49315
82.2786  16.6014  4.19204
90.86  -7.7711  5.66611
90.8659  -7.23921  5.93711
90.872  -6.69194  6.17549
90.8782  -6.13128  6.3804
90.8846  -5.55926  6.55107
90.891  -4.97799  6.6869
90.8975  -4.38958  6.78738
90.9041  -3.79617  6.85214
90.9411  2.36276  8.00685
90.9484  3.01747  7.66169
90.9554  3.65015  7.27763
90.9336  1.6884  8.31184
5.32851  1.88118  -11.4359
5.32278  1.36466  -11.6591
5.3169  0.835599  -11.8507
5.3109  0.29594  -12.01
5.30481  -0.252352  -12.1364
5.29864  -0.807276  -12.2295
5.29243  -1.36681  -12.2889
10.093  -6.23776  -14.4699
14.7346  -1.79762  -18.133
14.7143  -3.62434  -18.0681
14.6942  -5.42992  -17.7835
5.8336  -11.7047  -2.00055
5.83446  -11.6268  -1.42104
5.83571  -11.514  -0.847292
3.62599  -9.64219  0.788509
5.83735  -11.3669  -0.281396
5.83936  -11.1858  0.274579
5.84174  -10.9715  0.818606
10.4376  -14.5862  -2.84794
15.2219  -16.9809  1.83852
86.6596  17.1721  2.39403
86.6628  17.461  1.16787
86.6668  17.8144  -1.32554
86.6672  17.8555  -1.95414
86.6675  17.8776  -2.58369
86.6663  17.7757  -5.09996
86.6645  17.6111  -6.34889
86.6633  17.5006  -6.96906
86.6619  17.3713  -7.58561
86.6584  17.0574  -8.80559
86.649  16.2116  -11.1776
86.6461  15.9559  -11.7533
86.6431  15.6829  -12.321
86.6365  15.0861  -13.4304
86.621  13.6973  -15.5311
86.6167  13.3112  -16.0289
86.6123  12.9103  -16.5147
86.5929  11.1656  -18.3306
86.5823  10.2142  -19.1563
86.5768  9.72024  -19.5472
86.5712  9.2147  -19.923
86.5596  8.17075  -20.628
86.5351  5.96482  -21.8426
86.5287  5.39168  -22.1039
86.5223  4.8109  -22.3478
86.5092  3.62858  -22.7824
91.0074  13.4884  -6.81527
91.0078  15.8644  -6.13571
91.0021  15.3487  -8.38925
86.4821  1.1961  -23.4338
86.4753  0.577077  -23.5503
86.4683  -0.045186  -23.6481
86.4544  -1.29715  -23.7872
86.4265  -3.81482  -23.8374
86.4195  -4.44375  -23.8025
86.4125  -5.07134  -23.7485
86.3986  -6.3202  -23.5839
86.3713  -8.77674  -23.0301
86.3646  -9.37902  -22.8456
86.358  -9.97546  -22.643
86.3323  -12.292  -21.6555
86.3199  -13.4013  -21.0587
86.3139  -13.9419  -20.7354
86.308  -14.4725  -20.396
86.2966  -15.5018  -19.6698
86.2753  -17.4197  -18.0378
86.2703  -17.8672  -17.5945
86.2655  -18.3012  -17.138
90.7744  -5.64515  -21.4861
90.921  5.22029  -17.2712
90.7994  -3.3979  -21.6678
86.2563  -19.1268  -16.1865
90.7498  -7.85413  -21.0349
86.24  -20.5984  -14.1429
86.2363  -20.9269  -13.6054
86.2328  -21.239  -13.0583
86.2265  -21.8129  -11.9369
86.216  -22.7527  -9.6005
86.2139  -22.943  -9
86.212  -23.1151  -8.39403
86.2088  -23.404  -7.16787
86.2049  -23.7574  -4.67446
86.2044  -23.7985  -4.04586
86.2042  -23.8206  -3.41631
86.2043  -23.8077  -2.15663
86.2071  -23.5541  0.348893
86.2084  -23.4436  0.96906
86.2098  -23.3144  1.58561
86.2133  -23.0004  2.80559
86.2227  -22.1546  5.17762
86.2255  -21.8989  5.75331
86.2286  -21.6259  6.32102
86.2352  -21.0291  7.43041
86.2506  -19.6403  9.53109
86.2549  -19.2542  10.0289
86.2594  -18.8533  10.5147
90.9032  -1.55252  -14.7296
86.2687  -18.0084  11.4491
90.8953  -2.26337  -14.7969
90.8873  -2.97699  -14.8211
86.2893  -16.1572  13.1563
86.2948  -15.6633  13.5472
86.3004  -15.1577  13.923
86.312  -14.1138  14.628
86.3365  -11.9078  15.8426
86.3429  -11.3347  16.1039
86.3494  -10.7539  16.3478
86.3625  -9.5716  16.7824
90.9774  1.379  -10.6206
86.3895  -7.13912  17.4338
90.9722  0.910879  -10.8724
86.3964  -6.5201  17.5503
86.4033  -5.89783  17.6481
90.9668  0.428413  -11.0954
90.6554  -16.353  10.0706
90.7892  -6.64236  13.0768
90.639  -17.8312  8.36805
86.4172  -4.64587  17.7872
90.9613  -0.0666418  -11.289
86.4452  -2.1282  17.8374
86.4522  -1.49927  17.8025
86.4592  -0.871679  17.7485
86.473  0.377177  17.5839
86.5003  2.83372  17.0301
86.507  3.436  16.8456
86.5136  4.03244  16.643
86.5267  5.20561  16.1843
86.5517  7.45825  15.0587
86.5577  7.99889  14.7354
86.5636  8.52952  14.396
86.575  9.55881  13.6698
86.5964  11.4766  12.0378
86.6013  11.9242  11.5945
86.6062  12.3582  11.138
86.6153  13.1838  10.1865
86.6317  14.6554  8.14294
86.6353  14.9839  7.60544
86.6388  15.296  7.05826
86.6452  15.8699  5.93688
86.6556  16.8097  3.6005
90.7722  -13.3383  2.76887
90.7763  -12.9712  3.38133
90.7808  -12.5678  3.9705
90.9238  5.97126  11.362
90.811  -4.67823  13.3962
90.9264  8.53238  12.2651
90.8389  -11.0819  0.529863
90.8414  -10.8541  1.01013
90.8443  -10.5977  1.47577
5.67121  -10.5748  -7.4225
10.2449  -12.2463  -10.0289
88.8461  17.0883  2.6973
88.8479  17.2512  2.08806
88.853  17.7169  -0.389703
88.8544  17.8367  -1.64514
88.8546  17.8548  -1.95996
88.8547  17.8681  -2.275
88.8548  17.8738  -3.53614
88.8524  17.657  -6.04794
88.8512  17.5555  -6.67036
88.8506  17.4978  -6.98035
88.8499  17.4353  -7.28944
88.8484  17.2965  -7.9046
88.8402  16.5573  -10.315
88.8349  16.08  -11.4823
88.8334  15.9498  -11.7694
88.8319  15.8152  -12.0546
88.8288  15.5331  -12.6186
88.8144  14.2387  -14.7821
88.8061  13.4959  -15.8012
88.804  13.3007  -16.0489
88.8018  13.1018  -16.2935
88.7925  12.2698  -17.2413
88.7722  10.442  -18.9776
88.7668  9.95335  -19.3762
88.764  9.70455  -19.5699
88.7612  9.45286  -19.7599
88.7555  8.94101  -20.1282
88.7316  6.78953  -21.4423
88.7191  5.65823  -21.9995
88.7159  5.3703  -22.128
88.7126  5.08047  -22.2522
88.7061  4.49535  -22.4874
88.6794  2.09193  -23.2483
88.6657  0.860164  -23.5186
88.6623  0.549847  -23.5745
88.6588  0.238721  -23.6257
88.6519  -0.385674  -23.714
88.6239  -2.90134  -23.8776
88.6099  -4.16199  -23.8452
88.6064  -4.47667  -23.8252
88.603  -4.79101  -23.8004
88.596  -5.41839  -23.7367
88.5684  -7.90011  -23.2935
88.5549  -9.11638  -22.9604
88.5516  -9.41713  -22.8656
88.5482  -9.71641  -22.7664
88.5351  -10.8975  -22.3245
88.5099  -13.1691  -21.2311
88.5038  -13.7151  -20.9155
88.5008  -13.9844  -20.7516
88.4978  -14.2512  -20.5836
88.492  -14.7771  -20.2356
88.4699  -16.7686  -18.6897
88.4596  -17.6908  -17.8295
88.4572  -17.9131  -17.6058
88.4547  -18.1319  -17.3788
88.45  -18.5593  -16.9151
88.4326  -20.123  -14.9376
88.4249  -20.8125  -13.8816
88.4231  -20.9748  -13.6113
88.4214  -21.133  -13.3385
88.418  -21.4369  -12.7859
88.4064  -22.482  -10.4916
88.4018  -22.8987  -9.30134
88.4007  -22.9916  -9
88.3997  -23.08  -8.6973
88.3979  -23.2429  -8.08806
88.3928  -23.7085  -5.6103
88.3914  -23.8283  -4.35486
88.3912  -23.8464  -4.04004
88.3911  -23.8597  -3.725
88.3909  -23.8721  -3.09447
88.3925  -23.7313  -0.577272
88.3946  -23.5472  0.670361
88.3952  -23.4894  0.980354
88.3959  -23.4269  1.28944
88.3974  -23.2881  1.9046
90.6071  -20.7003  -9
90.6373  -16.8128  -17.1762
88.4056  -22.549  4.31495
88.4109  -22.0717  5.48227
88.4124  -21.9414  5.76943
88.4139  -21.8068  6.05459
88.417  -21.5247  6.61864
88.4314  -20.2303  8.78206
88.4397  -19.4875  9.80122
88.4418  -19.2923  10.0489
88.444  -19.0934  10.2935
88.4486  -18.6846  10.7737
88.4683  -16.9101  12.5644
88.479  -15.945  13.3762
88.4818  -15.6962  13.5699
88.4846  -15.4445  13.7599
88.4903  -14.9326  14.1282
90.6884  -17.1278  -8.57643
88.5142  -12.7811  15.4423
88.5267  -11.6498  15.9995
88.5299  -11.3619  16.128
88.5332  -11.0721  16.2522
88.5397  -10.487  16.4874
88.5664  -8.08355  17.2483
88.5801  -6.85178  17.5186
88.5835  -6.54147  17.5745
88.587  -6.23034  17.6257
88.5939  -5.60595  17.714
88.6219  -3.09028  17.8776
88.6359  -1.82963  17.8452
90.8941  -4.94934  -12.4919
88.6394  -1.51495  17.8252
88.6428  -1.20061  17.8004
88.6498  -0.573231  17.7367
90.8878  -5.5189  -12.3582
90.8815  -6.07934  -12.1903
88.6774  1.90849  17.2935
90.7737  -13.2057  -9
90.8754  -6.62862  -11.9889
88.6909  3.12476  16.9604
88.6942  3.42551  16.8656
88.6976  3.72479  16.7664
88.7042  4.31869  16.5544
88.7298  6.62223  15.5301
88.742  7.72344  14.9155
88.745  7.99278  14.7516
88.748  8.25961  14.5836
88.7538  8.78552  14.2356
88.7759  10.777  12.6897
88.7862  11.6992  11.8295
88.7886  11.9214  11.6058
88.7911  12.1403  11.3788
88.7958  12.5677  10.9151
88.8132  14.1314  8.93756
88.8209  14.8208  7.8816
88.8227  14.9832  7.61126
88.8244  15.1414  7.33849
88.8278  15.4453  6.78594
88.8394  16.4904  4.49162
88.844  16.9071  3.30134
90.8091  -12.6021  -4.41847
90.8083  -12.6702  -3.83737
90.8079  -12.7032  -3.25322
90.808  -12.7008  -2.66814
90.8481  -6.26181  8.59192
5.47408  -6.66734  -11.2553
89.9392  17.0447  2.84872
89.9402  17.1308  2.54518
89.9435  17.4288  1.31904
89.9476  17.8004  -1.17599
89.9481  17.846  -1.80533
89.9482  17.8544  -1.96286
89.9483  17.8616  -2.12045
89.9485  17.8787  -2.75122
89.9472  17.7564  -5.27079
89.9452  17.5814  -6.52045
89.9446  17.5259  -6.83103
89.9443  17.4964  -6.986
89.9439  17.4657  -7.14074
89.9432  17.4008  -7.44951
89.9398  17.0949  -8.67372
89.9306  16.2645  -11.0556
89.9278  16.0124  -11.6341
89.927  15.9467  -11.7775
89.9263  15.8799  -11.9204
89.9248  15.743  -12.2047
89.9182  15.1531  -13.3201
89.9029  13.7768  -15.434
89.8987  13.3936  -15.9354
89.8976  13.2955  -16.0589
89.8965  13.1964  -16.1816
89.892  12.7909  -16.665
89.8724  11.0287  -18.4699
89.8617  10.0691  -19.2892
89.859  9.82156  -19.4849
89.8576  9.69671  -19.5813
89.8562  9.57114  -19.6768
89.8534  9.31785  -19.8649
89.8418  8.27715  -20.5784
89.8174  6.07616  -21.8105
89.811  5.50391  -22.0763
89.8094  5.35962  -22.1401
89.8078  5.21485  -22.2027
89.8046  4.9239  -22.3247
89.7914  3.7427  -22.7684
89.7644  1.31081  -23.438
89.7575  0.691587  -23.5592
89.7558  0.536232  -23.5865
89.7541  0.380675  -23.6127
89.7506  0.0689887  -23.6615
89.7367  -1.18406  -23.8096
89.7087  -3.70553  -23.8778
89.7017  -4.33574  -23.8472
89.6999  -4.49313  -23.8366
89.6982  -4.65043  -23.8247
89.6947  -4.96475  -23.7976
89.6808  -6.21682  -23.6415
89.6534  -8.68133  -23.1041
89.6467  -9.28591  -22.9236
89.645  -9.43618  -22.8756
89.6433  -9.58608  -22.8265
89.6367  -10.1819  -22.6188
89.611  -12.4942  -21.611
89.5987  -13.6005  -21.0042
89.5957  -13.8712  -20.8422
89.5942  -14.0056  -20.7596
89.5928  -14.1394  -20.6761
89.5898  -14.4051  -20.5059
89.5783  -15.4412  -19.7858
89.5568  -17.3738  -18.1646
89.5518  -17.8252  -17.7238
89.5506  -17.936  -17.6115
89.5494  -18.0459  -17.4983
89.5469  -18.2631  -17.2695
89.5377  -19.0968  -16.3224
89.5211  -20.5852  -14.2858
89.5174  -20.9181  -13.7497
89.5165  -20.9987  -13.6142
89.5157  -21.0784  -13.478
89.5139  -21.2345  -13.2039
89.5074  -21.8173  -12.0847
89.4968  -22.7752  -9.75108
89.4946  -22.97  -9.15094
89.4941  -23.0159  -9
89.4936  -23.0607  -8.84872
89.4927  -23.1467  -8.54518
89.4894  -23.4447  -7.31904
89.4852  -23.8163  -4.82401
89.4847  -23.8619  -4.19467
89.4846  -23.8703  -4.03714
89.4846  -23.8776  -3.87955
89.4844  -23.8885  -3.56423
89.4845  -23.8844  -2.30239
89.4871  -23.6481  0.209062
89.4883  -23.5418  0.831032
89.4886  -23.5123  0.986001
89.489  -23.4816  1.14074
89.4897  -23.4167  1.44951
89.4931  -23.1109  2.67372
89.5023  -22.2804  5.05564
89.5051  -22.0284  5.63408
89.5058  -21.9626  5.77749
89.5066  -21.8958  5.92039
89.5081  -21.7589  6.20466
89.5146  -21.169  7.32009
89.5299  -19.7927  9.43405
89.5342  -19.4095  9.93536
89.5353  -19.3114  10.0589
89.5364  -19.2123  10.1816
89.5386  -19.0114  10.4249
89.548  -18.1717  11.3667
89.5684  -16.3295  13.0898
89.5739  -15.8375  13.4849
89.5753  -15.7126  13.5813
89.5767  -15.5871  13.6768
89.5795  -15.3338  13.8649
89.591  -14.2931  14.5784
89.6155  -12.0921  15.8105
89.6219  -11.5198  16.0763
89.6235  -11.3755  16.1401
89.6251  -11.2308  16.2027
89.6283  -10.9398  16.3247
89.6414  -9.75863  16.7684
89.6685  -7.32673  17.438
89.6753  -6.70751  17.5592
89.6771  -6.55215  17.5865
89.6788  -6.3966  17.6127
89.6823  -6.08491  17.6615
89.6962  -4.83186  17.8096
89.7242  -2.31039  17.8778
89.7312  -1.68018  17.8472
89.7329  -1.52279  17.8366
89.7347  -1.36549  17.8247
89.7382  -1.05117  17.7976
89.7521  0.200903  17.6415
89.7795  2.66541  17.1041
89.7862  3.26999  16.9236
89.7879  3.42026  16.8756
89.7895  3.57016  16.8265
89.7928  3.86884  16.7249
89.8059  5.04718  16.2737
89.8311  7.31149  15.1622
89.8371  7.8553  14.8422
89.8386  7.98972  14.7596
89.8401  8.12352  14.6761
89.8431  8.3892  14.5059
89.8546  9.42532  13.7858
89.8761  11.3578  12.1646
89.8811  11.8093  11.7238
89.8823  11.92  11.6115
89.8835  12.03  11.4983
89.8859  12.2472  11.2695
89.8952  13.0809  10.3224
89.9117  14.5693  8.2858
89.9154  14.9021  7.74973
89.9163  14.9828  7.61416
89.9172  15.0624  7.47799
89.919  15.2186  7.20386
89.9254  15.8014  6.08468
89.9361  16.7592  3.75108
89.9382  16.9541  3.15094
90.4858  17.0225  2.92438
90.4863  17.0667  2.77289
90.4882  17.2319  2.16372
90.4934  17.7066  -0.314453
90.4948  17.831  -1.57051
90.495  17.8502  -1.88552
90.4951  17.8542  -1.96432
90.4951  17.858  -2.04313
90.4953  17.8701  -2.35849
90.4953  17.8707  -3.62069
90.4927  17.6436  -6.1337
90.4916  17.5395  -6.75623
90.4913  17.5106  -6.91135
90.4911  17.4957  -6.98882
90.4909  17.4805  -7.06624
90.4906  17.4492  -7.22091
90.4891  17.3124  -7.83707
90.4809  16.5812  -10.252
90.4757  16.1076  -11.422
90.4742  15.9782  -11.7099
90.4739  15.9452  -11.7815
90.4735  15.9119  -11.853
90.4727  15.8445  -11.9957
90.4696  15.5642  -12.5612
90.4553  14.2763  -14.731
90.4471  13.5365  -15.7537
90.4449  13.342  -16.0022
90.4444  13.2928  -16.0639
90.4438  13.2434  -16.1253
90.4416  13.0433  -16.3694
90.4323  12.2068  -17.3146
90.4119  10.3705  -19.045
90.4065  9.87985  -19.442
90.4051  9.75533  -19.5389
90.4044  9.69279  -19.587
90.4037  9.63007  -19.6348
90.4023  9.5041  -19.7299
90.3966  8.99312  -20.1003
90.3727  6.84449  -21.423
90.3602  5.71421  -21.9847
90.357  5.42651  -22.1144
90.3562  5.35428  -22.1461
90.3554  5.28193  -22.1776
90.3538  5.13687  -22.2397
90.3473  4.55209  -22.4771
90.3206  2.14937  -23.2471
90.3069  0.917529  -23.522
90.3034  0.607151  -23.579
90.3026  0.529425  -23.5926
90.3017  0.451648  -23.6058
90.3  0.295947  -23.6314
90.293  -0.328655  -23.7219
90.2651  -2.84583  -23.8946
90.2511  -4.10765  -23.8666
90.2476  -4.42265  -23.8477
90.2467  -4.50136  -23.8422
90.2458  -4.58004  -23.8365
90.2441  -4.73734  -23.824
90.2371  -5.36547  -23.7625
90.2095  -7.85081  -23.3277
90.1959  -9.06926  -22.9985
90.1926  -9.3706  -22.9048
90.1917  -9.44571  -22.8806
90.1909  -9.52072  -22.8562
90.1876  -9.81986  -22.7557
90.1745  -11.0002  -22.3087
90.1493  -13.2692  -21.2052
90.1432  -13.8144  -20.8871
90.1417  -13.9491  -20.8051
90.141  -14.0163  -20.7636
90.1402  -14.0833  -20.722
90.1387  -14.2168  -20.6379
90.1329  -14.7443  -20.2914
90.1107  -16.7429  -18.7514
90.1004  -17.6689  -17.8936
90.0979  -17.8921  -17.6706
90.0973  -17.9474  -17.6143
90.0967  -18.0025  -17.5578
90.0955  -18.112  -17.4442
90.0907  -18.5413  -16.9816
90.0732  -20.1133  -15.0079
90.0655  -20.8071  -13.9535
90.0637  -20.9705  -13.6835
90.0632  -21.0107  -13.6156
90.0628  -21.0506  -13.5476
90.0619  -21.1298  -13.4111
90.0585  -21.4359  -12.8591
90.0468  -22.4899  -10.5666
90.0421  -22.9112  -9.37679
90.0411  -23.0053  -9.07553
90.0408  -23.0281  -9
90.0406  -23.0506  -8.92438
90.0401  -23.0947  -8.77289
90.0383  -23.2599  -8.16372
90.033  -23.7347  -5.68555
90.0316  -23.859  -4.42949
90.0314  -23.8782  -4.11448
90.0313  -23.8823  -4.03568
90.0313  -23.8861  -3.95687
90.0312  -23.8927  -3.79921
90.0311  -23.9073  -3.16821
90.0325  -23.7752  -0.648424
90.0345  -23.5954  0.600894
90.0352  -23.5387  0.911347
90.0353  -23.5238  0.988824
90.0355  -23.5085  1.06624
90.0358  -23.4773  1.22091
90.0374  -23.3404  1.83707
90.0455  -22.6092  4.25203
90.0507  -22.1356  5.422
90.0522  -22.0063  5.70986
90.0526  -21.9732  5.78152
90.0529  -21.94  5.85305
90.0537  -21.8726  5.99573
90.0568  -21.5923  6.56124
90.0711  -20.3044  8.73103
90.0793  -19.5646  9.75366
90.0815  -19.3701  10.0022
90.082  -19.3209  10.0639
90.0826  -19.2715  10.1253
90.0837  -19.1719  10.2477
90.0882  -18.7644  10.7298
90.1079  -16.9947  12.5283
90.1186  -16.0317  13.3441
90.1213  -15.7834  13.5389
90.122  -15.7209  13.587
90.1227  -15.6581  13.6348
90.1241  -15.5322  13.7299
90.1298  -15.0212  14.1003
90.1537  -12.8726  15.423
90.1662  -11.7423  15.9847
90.1694  -11.4546  16.1144
90.1702  -11.3823  16.1461
90.171  -11.31  16.1776
90.1726  -11.1649  16.2397
90.1791  -10.5802  16.4771
90.2058  -8.17744  17.2471
90.2195  -6.9456  17.522
90.223  -6.63522  17.579
90.2238  -6.5575  17.5926
90.2247  -6.47972  17.6058
90.2264  -6.32402  17.6314
90.2334  -5.69942  17.7219
90.2613  -3.18224  17.8946
90.2754  -1.92043  17.8666
90.2789  -1.60542  17.8477
90.2797  -1.52671  17.8422
90.2806  -1.44803  17.8365
90.2824  -1.29073  17.824
90.2893  -0.662605  17.7625
90.3169  1.82274  17.3277
90.3305  3.04119  16.9985
90.3338  3.34252  16.9048
90.3347  3.41763  16.8806
90.3355  3.49265  16.8562
90.3372  3.64241  16.8065
90.3438  4.23755  16.5964
90.3694  6.54662  15.5794
90.3817  7.6509  14.9682
90.3847  7.92105  14.8051
90.3855  7.98819  14.7636
90.3862  8.05519  14.722
90.3877  8.1887  14.6379
90.3935  8.71627  14.2914
90.4158  10.7149  12.7514
90.426  11.6408  11.8936
90.4285  11.8641  11.6706
90.4291  11.9193  11.6143
90.4297  11.9744  11.5578
90.431  12.0839  11.4442
90.4357  12.5133  10.9816
90.4532  14.0852  9.0079
90.4609  14.779  7.9535
90.4627  14.9424  7.6835
90.4632  14.9826  7.61562
90.4636  15.0226  7.54758
90.4645  15.1017  7.41107
90.4679  15.4079  6.85913
90.4796  16.4619  4.5666
90.4843  16.8832  3.37679
90.4853  16.9772  3.07553
90.7591  17.0113  2.9622
90.7594  17.0337  2.88652
90.7603  17.1203  2.583
90.7637  17.4206  1.35688
90.7679  17.7967  -1.13853
90.7684  17.8434  -1.76806
90.7685  17.8522  -1.92564
90.7685  17.8541  -1.96504
90.7685  17.8561  -2.00445
90.7686  17.863  -2.16212
90.7688  17.8788  -2.79318
90.7674  17.7513  -5.31356
90.7654  17.5738  -6.56338
90.7648  17.5176  -6.87398
90.7646  17.5028  -6.9515
90.7645  17.4953  -6.99024
90.7644  17.4878  -7.02896
90.7643  17.4724  -7.10636
90.7635  17.4081  -7.41537
90.7602  17.1042  -8.64063
90.751  16.2776  -11.025
90.7482  16.0265  -11.6041
90.7475  15.961  -11.7477
90.7473  15.9444  -11.7835
90.7471  15.9278  -11.8193
90.7467  15.8944  -11.8908
90.7452  15.7579  -12.1754
90.7387  15.1697  -13.2924
90.9988  16.0253  -9.34113
91.0091  16.9556  -4.97627
90.7234  13.7966  -15.4096
90.9887  15.1221  -11.5907
90.7192  13.4141  -15.9118
90.7181  13.3162  -16.0355
90.7178  13.2915  -16.0664
90.7175  13.2668  -16.0971
90.7164  13.1675  -16.2197
90.7119  12.7608  -16.7026
90.6923  10.9942  -18.5046
90.6816  10.0326  -19.3223
90.6788  9.78458  -19.5176
90.6781  9.72213  -19.5658
90.6778  9.69083  -19.5898
90.6774  9.65949  -19.6138
90.6767  9.59667  -19.6615
90.6739  9.3436  -19.8501
90.6624  8.30373  -20.5658
90.6379  6.104  -21.8024
90.6316  5.53198  -22.0693
90.63  5.38774  -22.1333
90.6296  5.3516  -22.1491
90.6292  5.31544  -22.1649
90.6284  5.24302  -22.1962
90.6251  4.95217  -22.3188
90.612  3.77126  -22.7648
90.585  1.33954  -23.4389
90.5781  0.720268  -23.5612
90.5764  0.564896  -23.5888
90.576  0.526021  -23.5956
90.5755  0.487133  -23.6022
90.5747  0.40932  -23.6153
90.5712  0.0975904  -23.6647
90.5573  -1.15572  -23.8151
90.5292  -3.67812  -23.8877
90.5222  -4.30865  -23.8582
90.5205  -4.46612  -23.8478
90.5201  -4.50547  -23.8451
90.5196  -4.54482  -23.8422
90.5187  -4.62351  -23.8363
90.5152  -4.938  -23.8097
90.5013  -6.19087  -23.6557
90.4739  -8.65735  -23.1225
90.4672  -9.2625  -22.943
90.4655  -9.41292  -22.8952
90.4651  -9.45047  -22.8831
90.4647  -9.48799  -22.871
90.463  -9.63786  -22.8215
90.4564  -10.2335  -22.6125
90.7485  -6.75142  -22.4824
90.7882  -3.17872  -22.8359
90.4307  -12.5447  -21.5996
90.4184  -13.6503  -20.9904
90.4154  -13.9208  -20.8277
90.4147  -13.988  -20.7864
90.4143  -14.0216  -20.7657
90.4139  -14.0551  -20.7448
90.4132  -14.122  -20.703
90.4102  -14.3881  -20.5333
90.7187  -9.42794  -21.7729
90.3987  -15.4259  -19.8147
90.3772  -17.3621  -18.1963
90.3722  -17.8145  -17.7561
90.3709  -17.9255  -17.6439
90.3706  -17.9531  -17.6157
90.3703  -17.9807  -17.5875
90.3697  -18.0357  -17.5309
90.3673  -18.2534  -17.3024
90.62  -17.7307  -17.1225
90.6298  -16.8512  -17.985
90.6108  -18.5565  -16.2085
90.3414  -20.5818  -14.3215
90.3377  -20.9157  -13.7858
90.3368  -20.9966  -13.6503
90.3366  -21.0167  -13.6163
90.3364  -21.0367  -13.5823
90.3359  -21.0765  -13.5142
90.3342  -21.2332  -13.2402
90.3277  -21.8183  -12.1216
90.317  -22.7806  -9.78875
90.3148  -22.9766  -9.1887
90.3143  -23.0228  -9.03778
90.3142  -23.0341  -9
90.3141  -23.0454  -8.9622
90.3138  -23.0678  -8.88652
90.3128  -23.1544  -8.583
90.3095  -23.4548  -7.35688
90.5827  -21.6735  -9.74472
90.3053  -23.8309  -4.86147
90.3048  -23.8776  -4.23194
90.3047  -23.8863  -4.07436