VARIABLES = X Y Z
ZONE N =8957, E =17886, DATAPACKING = POINT, ZONETYPE = FETRIANGLE
91  2  3
91  2  3
1  2  3
15.2815  12  3
20.042  15.3333  3
21.8272  16.5833  3
22.1619  16.8177  3
22.3966  16.9821  3
22.4111  16.9922  3
22.433  17  3
70.6112  17  3
81.4604  17  3
91  16.9882  3
91  10.5433  3
1  2  3
15.2815  12  3
20.042  15.3333  3
21.8272  16.5833  3
22.1619  16.8177  3
22.3966  16.9821  3
22.4111  16.9922  3
22.433  17  3
70.6112  17  3
81.4604  17  3
91  16.9882  3
91  10.5433  3
45.5642  16.7118  0.0736452
26.779  16.7118  0.0736452
45.5642  15.8582  -2.74025
26.779  15.8582  -2.74025
26.779  14.472  -5.33355
45.5642  14.472  -5.33355
45.5642  12.6066  -7.6066
26.779  12.6066  -7.6066
26.779  10.3336  -9.47204
45.5642  10.3336  -9.47204
45.5642  7.74025  -10.8582
26.779  7.74025  -10.8582
45.5642  4.92635  -11.7118
26.779  4.92635  -11.7118
26.779  2  -12
45.5642  2  -12
45.5642  -0.926355  -11.7118
26.779  -0.926355  -11.7118
26.779  -3.74025  -10.8582
45.5642  -3.74025  -10.8582
45.5642  -6.33355  -9.47204
26.779  -6.33355  -9.47204
45.5642  -8.6066  -7.6066
26.779  -8.6066  -7.6066
45.5642  -10.472  -5.33355
26.779  -10.472  -5.33355
45.5642  -11.8582  -2.74025
26.779  -11.8582  -2.74025
26.779  -12.7118  0.0736452
45.5642  -12.7118  0.0736452
45.5642  -13  3
26.779  -13  3
26.779  -12.7118  5.92635
45.5642  -12.7118  5.92635
45.5642  -11.8582  8.74025
26.779  -11.8582  8.74025
26.779  -10.472  11.3336
45.5642  -10.472  11.3336
26.779  -8.6066  13.6066
45.5642  -8.6066  13.6066
45.5642  -6.33355  15.472
26.779  -6.33355  15.472
26.779  -3.74025  16.8582
45.5642  -3.74025  16.8582
45.5642  -0.926355  17.7118
26.779  -0.926355  17.7118
26.779  2  18
45.5642  2  18
45.5642  4.92635  17.7118
26.779  4.92635  17.7118
26.779  7.74025  16.8582
45.5642  7.74025  16.8582
45.5642  10.3336  15.472
26.779  10.3336  15.472
45.5642  12.6066  13.6066
26.779  12.6066  13.6066
26.779  14.472  11.3336
45.5642  14.472  11.3336
45.5642  15.8582  8.74025
26.779  15.8582  8.74025
45.5642  16.7118  5.92635
26.779  16.7118  5.92635
17.6617  13.6105  1.85647
18.4551  13.9874  0.615563
17.6617  13.4425  0.723946
20.042  15.0771  0.398796
17.6617  13.1643  -0.386655
18.4551  13.5736  -0.928705
17.6617  12.7786  -1.46464
20.042  14.3184  -2.10245
18.4551  12.9618  -2.40575
17.6617  12.2891  -2.49963
20.042  13.0863  -4.4076
18.4551  12.1624  -3.7903
17.6617  11.7005  -3.48165
17.6617  11.0185  -4.40125
18.4551  11.1892  -5.05867
17.6617  10.2496  -5.24958
20.042  11.4281  -6.42809
18.4551  10.0587  -6.18915
20.042  9.4076  -8.08626
17.6617  9.40125  -6.01846
20.637  15.4858  0.317508
18.4551  8.7903  -7.16241
17.6617  8.48165  -6.70048
17.6617  7.49963  -7.28908
20.9346  15.6901  0.276864
18.4551  7.40575  -7.96178
17.6617  6.46464  -7.77859
20.042  7.10245  -9.31839
18.4551  5.9287  -8.57359
17.6617  5.38665  -8.1643
18.4551  4.38444  -8.98738
17.6617  4.27605  -8.44249
17.6617  3.14353  -8.61049
22.0717  16.471  0.121533
18.4551  2.79937  -9.19605
17.6617  2  -8.66667
18.4551  1.20063  -9.19605
24.4309  16.3541  -1.35427
24.4309  15.2288  -4.07095
23.6482  16.204  -1.82159
24.4309  13.5952  -6.5159
23.6482  14.9904  -4.5
24.4309  11.5159  -8.59516
23.6482  13.2776  -6.89019
24.4309  9.07095  -10.2288
23.6482  11.1314  -8.9003
23.6482  6.82159  -11.204
23.6482  8.63433  -10.4531
22.3162  7.71183  -10.7896
24.4309  6.35427  -11.3541
24.4309  3.47026  -11.9278
23.6482  3.95789  -11.8717
24.4309  0.529743  -11.9278
24.4309  -2.35427  -11.3541
23.6482  0.0421071  -11.8717
23.6482  -4.63433  -10.4531
23.6482  -2.82159  -11.204
22.3162  -3.71183  -10.7896
24.4309  -5.07095  -10.2288
24.4309  -7.5159  -8.59516
24.4309  -9.59516  -6.5159
23.6482  -7.89019  -8.2776
24.4309  -11.2288  -4.07095
23.6482  -9.9003  -6.13142
24.4309  -12.3541  -1.35427
23.6482  -11.4531  -3.63433
24.4309  -12.9278  1.52974
23.6482  -12.4889  -0.882286
18.4551  2.79937  15.1961
17.6617  2  14.6667
17.6617  3.14353  14.6105
18.4551  1.20063  15.1961
24.4309  -12.9278  4.47026
23.6482  -12.9679  2.01895
53.9132  16.7118  0.0736452
18.4551  4.38444  14.9874
17.6617  4.27605  14.4425
17.6617  5.38665  14.1643
24.4309  -12.3541  7.35427
23.6482  -12.8717  4.95789
18.4551  5.9287  14.5736
17.6617  6.46464  13.7786
23.6482  -11.4531  9.63433
23.6482  -12.204  7.82159
22.3162  -11.7896  8.71183
18.4551  7.40575  13.9618
17.6617  7.49963  13.2891
20.042  9.4076  14.0863
20.042  7.10245  15.3184
24.4309  -11.2288  10.071
18.4551  8.7903  13.1624
17.6617  8.48165  12.7005
17.6617  9.40125  12.0185
24.4309  -9.59516  12.5159
23.6482  -9.9003  12.1314
58.0877  16.3541  -1.35427
53.9132  16.204  -1.82159
58.0877  16.7118  0.0736452
18.4551  10.0587  12.1892
17.6617  10.2496  11.2496
20.042  11.4281  12.4281
58.0877  15.8582  -2.74025
53.9132  15.4531  -3.63433
18.4551  11.1892  11.0587
20.042  13.0863  10.4076
17.6617  11.0185  10.4013
24.4309  -7.5159  14.5952
58.0877  15.2288  -4.07095
53.9132  14.472  -5.33355
23.6482  -5.5  15.9904
23.6482  -7.13142  14.9003
22.3162  -6.2923  15.4103
18.4551  12.1624  9.7903
17.6617  11.7005  9.48165
17.6617  12.2891  8.49963
58.0877  14.472  -5.33355
24.4309  -5.07095  16.2288
58.0877  13.5952  -6.5159
53.9132  13.2776  -6.89019
18.4551  12.9618  8.40575
20.042  14.3184  8.10245
17.6617  12.7786  7.46464
17.6617  13.6105  4.14353
18.4551  13.5736  6.9287
17.6617  13.1643  6.38665
20.042  15.0771  5.6012
24.4309  -2.35427  17.3541
18.4551  13.9874  5.38444
17.6617  13.4425  5.27605
24.4309  0.529743  17.9278
23.6482  -1.88229  17.4889
24.4309  3.47026  17.9278
23.6482  1.01895  17.9679
23.6482  5.88229  17.4889
23.6482  3.95789  17.8717
22.3162  4.91187  17.6389
24.4309  6.35427  17.3541
24.4309  9.07095  16.2288
20.637  15.4858  5.68249
20.9346  15.6901  5.72314
24.4309  11.5159  14.5952
23.6482  9.5  15.9904
23.6482  13.2776  12.8902
23.6482  11.8902  14.2776
22.3162  12.5541  13.5541
24.4309  13.5952  12.5159
22.0717  16.471  5.87847
24.4309  15.2288  10.071
77.844  16.7118  0.0736452
76.0358  16.7118  0.0736452
76.0358  16.3541  -1.35427
81.4604  16.7118  0.0736452
23.6482  16.204  7.82159
23.6482  15.4531  9.63433
22.3162  15.7896  8.71183
77.844  16.204  -1.82159
76.0358  15.8582  -2.74025
81.4604  15.8582  -2.74025
24.4309  16.3541  7.35427
77.844  15.4531  -3.63433
76.0358  15.2288  -4.07095
81.4604  14.472  -5.33355
77.844  14.472  -5.33355
76.0358  14.472  -5.33355
76.0358  13.5952  -6.5159
77.844  13.2776  -6.89019
81.4604  12.6066  -7.6066
76.0358  12.6066  -7.6066
77.844  11.8902  -8.2776
76.0358  11.5159  -8.59516
77.844  10.3336  -9.47204
86.2571  16.9278  1.52974
86.2571  16.7118  0.0736452
86.2571  16.3541  -1.35427
86.2571  15.8582  -2.74025
86.2571  15.2288  -4.07095
86.2571  14.472  -5.33355
86.2571  13.5952  -6.5159
86.2571  12.6066  -7.6066
86.2571  11.5159  -8.59516
81.4604  10.3336  -9.47204
86.2571  10.3336  -9.47204
86.2571  9.07095  -10.2288
81.4604  7.74025  -10.8582
86.2571  7.74025  -10.8582
86.2571  6.35427  -11.3541
81.4604  4.92635  -11.7118
86.2571  4.92635  -11.7118
86.2571  3.47026  -11.9278
81.4604  2  -12
86.2571  2  -12
86.2571  0.529743  -11.9278
81.4604  -0.926355  -11.7118
86.2571  -0.926355  -11.7118
86.2571  -2.35427  -11.3541
81.4604  -3.74025  -10.8582
86.2571  -3.74025  -10.8582
86.2571  -5.07095  -10.2288
81.4604  -6.33355  -9.47204
86.2571  -6.33355  -9.47204
91  13.7091  1.84675
86.2571  -7.5159  -8.59516
81.4604  -8.6066  -7.6066
86.2571  -8.6066  -7.6066
86.2571  -9.59516  -6.5159
81.4604  -10.472  -5.33355
86.2571  -10.472  -5.33355
58.0877  13.5952  12.5159
53.9132  13.2776  12.8902
53.9132  14.472  11.3336
86.2571  -11.2288  -4.07095
81.4604  -11.8582  -2.74025
53.9132  16.7118  5.92635
58.0877  14.472  11.3336
86.2571  -11.8582  -2.74025
58.0877  15.2288  10.071
53.9132  15.4531  9.63433
86.2571  -12.3541  -1.35427
81.4604  -12.7118  0.0736452
58.0877  15.8582  8.74025
53.9132  16.204  7.82159
86.2571  -12.7118  0.0736452
58.0877  16.3541  7.35427
86.2571  -12.9278  1.52974
81.4604  -13  3
58.0877  16.7118  5.92635
86.2571  -13  3
86.2571  -12.9278  4.47026
81.4604  -12.7118  5.92635
86.2571  -12.7118  5.92635
86.2571  -12.3541  7.35427
81.4604  -11.8582  8.74025
86.2571  -11.8582  8.74025
86.2571  -11.2288  10.071
81.4604  -10.472  11.3336
86.2571  -10.472  11.3336
86.2571  -9.59516  12.5159
81.4604  -8.6066  13.6066
86.2571  -8.6066  13.6066
86.2571  -7.5159  14.5952
81.4604  -6.33355  15.472
86.2571  -6.33355  15.472
86.2571  -5.07095  16.2288
81.4604  -3.74025  16.8582
86.2571  -3.74025  16.8582
86.2571  -2.35427  17.3541
81.4604  -0.926355  17.7118
86.2571  -0.926355  17.7118
77.844  11.8902  14.2776
76.0358  11.5159  14.5952
76.0358  12.6066  13.6066
77.844  10.3336  15.472
86.2571  0.529743  17.9278
81.4604  2  18
77.844  13.2776  12.8902
76.0358  13.5952  12.5159
81.4604  14.472  11.3336
81.4604  12.6066  13.6066
86.2571  2  18
77.844  14.472  11.3336
76.0358  14.472  11.3336
76.0358  15.2288  10.071
86.2571  3.47026  17.9278
81.4604  4.92635  17.7118
86.2571  4.92635  17.7118
77.844  15.4531  9.63433
76.0358  15.8582  8.74025
81.4604  15.8582  8.74025
86.2571  6.35427  17.3541
81.4604  7.74025  16.8582
77.844  16.204  7.82159
76.0358  16.3541  7.35427
81.4604  16.7118  5.92635
86.2571  7.74025  16.8582
77.844  16.7118  5.92635
76.0358  16.7118  5.92635
86.2571  9.07095  16.2288
81.4604  10.3336  15.472
86.2571  10.3336  15.472
86.2571  11.5159  14.5952
86.2571  12.6066  13.6066
86.2571  13.5952  12.5159
86.2571  14.472  11.3336
86.2571  15.2288  10.071
86.2571  15.8582  8.74025
86.2571  16.3541  7.35427
86.2571  16.7118  5.92635
86.2571  16.9278  4.47026
91  13.7091  4.15325
16.4716  12.7161  1.41042
16.8683  12.6327  -0.225385
16.4716  12.6252  0.886522
16.4716  12.3669  -0.144751
16.4716  12.2001  -0.64964
16.4716  12.5087  0.367715
16.8683  12.399  -0.913889
16.4716  12.0087  -1.14574
16.8683  12.1207  -1.58563
16.4716  11.7932  -1.63185
16.8683  11.7991  -2.23774
16.4716  11.5541  -2.1068
16.4716  11.2921  -2.56945
16.8683  11.4356  -2.86742
16.4716  11.0076  -3.01868
16.8683  11.0316  -3.47197
16.4716  10.7014  -3.45341
16.8683  10.589  -4.04881
16.4716  10.3743  -3.87259
16.4716  10.027  -4.27522
16.8683  10.1096  -4.59547
16.4716  9.66032  -4.66032
16.8683  9.59547  -5.1096
16.8683  9.04881  -5.58901
16.8683  8.47197  -6.03163
16.8683  7.86742  -6.43558
20.493  14.4932  -2.49715
20.7185  14.5764  -2.69827
21.3951  15.7942  -0.696144
21.6111  16.3086  1.11624
21.2511  14.5778  -3.54758
21.8556  15.3016  -3.02687
22.3162  14.4103  -5.2923
22.3162  15.7896  -2.71183
23.4319  16.8376  0.799043
18.0584  0.0543041  -8.78491
18.4551  -0.384437  -8.98738
22.8654  16.4889  -0.882286
22.9822  16.7996  0.556568
22.6045  16.3058  -1.51059
22.3162  16.6389  0.0881325
24.5476  16.7996  0.556568
18.1907  -1.11541  -8.62688
18.4551  -1.9287  -8.57359
18.0584  -0.7123  -8.63242
22.8654  15.4531  -3.63433
22.6045  15.1509  -4.21483
22.8654  13.9003  -6.13142
22.6045  13.4907  -6.64181
22.3162  12.5541  -7.55409
22.8654  11.8902  -8.2776
22.6045  11.3889  -8.69827
22.8654  9.5  -9.99038
22.6045  8.92623  -10.3052
22.6045  6.51059  -11.3058
19.513  -6.75765  -6.5573
19.2486  -6.42497  -6.60684
19.2486  -7.32604  -5.73479
20.042  -5.4076  -8.08626
19.2486  -5.44277  -7.38637
20.042  -7.42809  -6.42809
22.8654  5.88229  -11.4889
19.513  -7.93021  -5.33243
20.042  -9.08626  -4.4076
19.2486  -8.13729  -4.77862
22.6045  3.633  -11.9108
22.3162  4.91187  -11.6389
22.3162  2  -11.9257
22.8654  2.98105  -11.9679
19.513  -8.93285  -3.96499
19.2486  -8.85092  -3.74753
22.6045  0.366997  -11.9108
22.3162  -0.911868  -11.6389
22.8654  1.01895  -11.9679
23.6482  2  -12
23.1263  2  -12
19.513  -9.74843  -2.47838
20.042  -10.3184  -2.10245
23.9091  1.50921  -11.992
22.8654  -1.88229  -11.4889
22.6045  -2.51059  -11.3058
22.6045  -4.92623  -10.3052
22.8654  -5.5  -9.99038
23.9091  -5.92102  -9.73803
22.6045  -7.64181  -8.49067
22.8654  -7.13142  -8.9003
23.6482  -6.33355  -9.47204
23.1263  -6.33355  -9.47204
22.8654  -9.2776  -6.89019
22.6045  -9.69827  -6.38885
22.3162  -8.55409  -7.55409
22.3162  -10.4103  -5.2923
19.513  -9.74843  8.47838
20.042  -9.08626  10.4076
20.042  -10.3184  8.10245
22.8654  -10.9904  -4.5
22.6045  -11.3052  -3.92623
22.3162  -11.7896  -2.71183
19.513  -8.93285  9.96499
19.2486  -8.85092  9.74753
19.2486  -8.13729  10.7786
19.513  -7.93021  11.3324
19.2486  -7.32604  11.7348
20.042  -7.42809  12.4281
22.8654  -12.204  -1.82159
22.6045  -12.4007  -1.19744
22.3162  -12.6389  0.0881325
19.513  -6.75765  12.5573
20.042  -5.4076  14.0863
19.2486  -6.42497  12.6068
19.2486  -5.44277  13.3864
18.1907  -1.11541  14.6269
18.4551  -0.384437  14.9874
18.4551  -1.9287  14.5736
22.8654  -12.8717  1.04211
18.0584  0.0543041  14.7849
18.0584  -0.7123  14.6324
22.6045  -12.9429  1.69266
22.3162  -12.9257  3
22.8654  -12.9679  3.98105
22.6045  -12.9108  4.633
22.3162  -12.6389  5.91187
22.8654  -12.4889  6.88229
16.8683  8.47197  12.0316
16.8683  7.86742  12.4356
22.6045  -12.3058  7.51059
16.8683  9.04881  11.589
16.4716  9.66032  10.6603
16.8683  9.59547  11.1096
22.6045  -11.3052  9.92623
22.3162  -10.4103  11.2923
16.8683  10.1096  10.5955
16.4716  10.027  10.2752
22.8654  -10.9904  10.5
16.8683  10.589  10.0488
16.4716  10.3743  9.87259
16.4716  10.7014  9.45341
16.8683  11.0316  9.47197
16.4716  11.0076  9.01868
22.6045  -9.69827  12.3889
22.3162  -8.55409  13.5541
16.8683  11.4356  8.86742
16.4716  11.2921  8.56945
22.8654  -9.2776  12.8902
16.8683  11.7991  8.23774
16.4716  11.5541  8.1068
16.4716  11.7932  7.63185
16.8683  12.1207  7.58563
16.4716  12.0087  7.14574
16.8683  12.399  6.91389
16.4716  12.2001  6.64964
22.6045  -7.38885  14.6983
22.8654  -7.89019  14.2776
23.6482  -8.6066  13.6066
23.1263  -8.6066  13.6066
16.8683  12.6327  6.22539
16.4716  12.3669  6.14475
16.4716  12.5087  5.63229
16.4716  12.6252  5.11348
23.9091  -8.25388  13.948
16.4716  12.7161  4.58958
48.3472  3.30734  -11.9429
48.3472  5.24659  -11.6444
49.7387  5.40614  -11.6082
49.7387  6.82159  -11.204
22.6045  -5.21483  16.1509
22.8654  -4.63433  16.4531
49.7387  3.95789  -11.8717
48.3472  1.34571  -11.9857
62.2622  16.7996  0.556568
49.7387  2.49079  -11.992
62.2622  16.6082  -0.406144
22.6045  -2.19744  17.4007
22.8654  -2.82159  17.204
23.6482  -3.74025  16.8582
23.1263  -3.74025  16.8582
48.3472  -0.604723  -11.7721
62.2622  16.3541  -1.35427
23.9091  -3.28375  17.0386
49.7387  1.01895  -11.9679
64.3495  16.8376  0.799043
49.7387  -0.443432  -11.7996
48.3472  -2.51059  -11.3058
64.3495  16.7118  0.0736452
22.8654  0.0421071  17.8717
22.6045  0.692664  17.9429
22.3162  -0.911868  17.6389
22.3162  2  17.9257
64.3495  16.5505  -0.644703
22.8654  2.98105  17.9679
22.6045  3.633  17.9108
60.6847  12.2539  -7.94796
60.6847  12.948  -7.25388
58.0877  12.6066  -7.6066
58.0877  11.5159  -8.59516
60.6847  11.5159  -8.59516
60.6847  10.7372  -9.1927
59.2932  9.35785  -10.0714
22.6045  6.19744  17.4007
61.9832  12.0734  -8.11427
61.9832  11.5159  -8.59516
22.8654  6.82159  17.204
61.9832  10.9355  -9.04811
61.9832  10.3336  -9.47204
61.9832  9.71154  -9.86593
20.493  14.4932  8.49715
22.6045  9.21483  16.1509
22.8654  8.63433  16.4531
23.6482  7.74025  16.8582
23.1263  7.74025  16.8582
20.7185  14.5764  8.69827
21.3951  15.7942  6.69614
23.9091  8.19061  16.663
21.2511  14.5778  9.54758
22.8654  11.1314  14.9003
22.6045  11.6418  14.4907
55.7214  -5.07095  -10.2288
52.3357  -4.63433  -10.4531
52.3357  -6.33355  -9.47204
22.6045  13.4907  12.6418
22.3162  14.4103  11.2923
74.2276  16.7996  0.556568
73.3235  16.8376  0.799043
73.3235  16.7118  0.0736452
21.8556  15.3016  9.02687
22.8654  13.9003  12.1314
74.2276  16.6082  -0.406144
73.3235  16.5505  -0.644703
74.2276  16.3541  -1.35427
73.3235  16.3541  -1.35427
73.3235  16.1232  -2.05335
23.9091  14.1927  11.7372
22.6045  15.3052  9.92623
22.8654  14.9904  10.5
23.6482  14.472  11.3336
23.1263  14.472  11.3336
74.2276  16.0386  -2.28375
21.6111  16.3086  4.88376
74.2276  15.663  -3.19061
22.6045  16.3058  7.51059
22.3162  16.6389  5.91187
22.8654  16.4889  6.88229
23.4319  16.8376  5.20096
22.9822  16.7996  5.44343
72.6501  10.7372  -9.1927
70.9572  10.3336  -9.47204
70.9572  9.71154  -9.86593
72.6501  11.5159  -8.59516
70.9572  10.9355  -9.04811
24.5476  16.7996  5.44343
73.2528  9.35785  -10.0714
88.6554  16.8376  0.799043
88.6554  16.9819  2.26398
88.6554  16.7118  0.0736452
88.6554  16.5505  -0.644703
88.6554  16.1232  -2.05335
88.6554  15.8582  -2.74025
48.3472  1.34571  17.9857
48.3472  -0.604723  17.7721
49.7387  -0.443432  17.7996
48.3472  -2.51059  17.3058
88.6554  15.5598  -3.41333
76.2665  -0.926355  -11.7118
73.6695  -0.926355  -11.7118
73.6695  -2.35427  -11.3541
80.255  5.24659  -11.6444
79.6522  6.82159  -11.204
79.6522  5.40614  -11.6082
79.6522  3.95789  -11.8717
49.7387  1.01895  17.9679
48.3472  3.30734  17.9429
88.6554  14.8659  -4.71154
76.2665  -2.82159  -11.204
73.6695  -3.74025  -10.8582
88.6554  14.472  -5.33355
80.255  3.30734  -11.9429
79.6522  2.49079  -11.992
49.7387  2.49079  17.992
88.6554  14.0481  -5.93549
48.3472  5.24659  17.6444
76.2665  -4.63433  -10.4531
73.6695  -5.07095  -10.2288
80.255  1.34571  -11.9857
49.7387  3.95789  17.8717
88.6554  13.1143  -7.07338
55.7214  -5.07095  16.2288
52.3357  -6.33355  15.472
52.3357  -4.63433  16.4531
88.6554  12.6066  -7.6066
49.7387  5.40614  17.6082
88.6554  12.0734  -8.11427
76.2665  -6.33355  -9.47204
73.6695  -6.33355  -9.47204
49.7387  6.82159  17.204
88.6554  10.9355  -9.04811
88.6554  10.3336  -9.47204
88.6554  9.71154  -9.86593
88.6554  8.41333  -10.5598
88.6554  7.74025  -10.8582
88.6554  7.05335  -11.1232
88.6554  5.6447  -11.5505
88.6554  4.92635  -11.7118
88.6554  4.20096  -11.8376
88.6554  2.73602  -11.9819
88.6554  2  -12
88.6554  1.26398  -11.9819
88.6554  -0.200957  -11.8376
88.6554  -0.926355  -11.7118
88.6554  -1.6447  -11.5505
88.6554  -3.05335  -11.1232
88.6554  -3.74025  -10.8582
88.6554  -4.41333  -10.5598
88.6554  -5.71154  -9.86593
88.6554  -6.33355  -9.47204
88.6554  -6.93549  -9.04811
88.6554  -8.07338  -8.11427
88.6554  -8.6066  -7.6066
60.6847  10.7372  15.1927
59.2932  9.35785  16.0714
58.0877  11.5159  14.5952
88.6554  -9.11427  -7.07338
60.6847  11.5159  14.5952
61.9832  10.3336  15.472
61.9832  9.71154  15.8659
88.6554  -10.0481  -5.93549
60.6847  12.2539  13.948
58.0877  12.6066  13.6066
61.9832  10.9355  15.0481
88.6554  -10.472  -5.33355
60.6847  12.948  13.2539
61.9832  11.5159  14.5952
88.6554  -10.8659  -4.71154
61.9832  12.0734  14.1143
91  12.1056  2.00468
88.6554  -11.5598  -3.41333
88.6554  -11.8582  -2.74025
88.6554  -12.1232  -2.05335
76.2665  -6.33355  15.472
73.6695  -6.33355  15.472
73.6695  -5.07095  16.2288
88.6554  -12.5505  -0.644703
76.2665  -4.63433  16.4531
73.6695  -3.74025  16.8582
88.6554  -12.7118  0.0736452
88.6554  -12.8376  0.799043
76.2665  -2.82159  17.204
73.6695  -2.35427  17.3541
88.6554  -12.9819  2.26398
88.6554  -13  3
88.6554  -12.9819  3.73602
76.2665  -0.926355  17.7118
73.6695  -0.926355  17.7118
62.2622  16.6082  6.40614
62.2622  16.3541  7.35427
88.6554  -12.8376  5.20096
62.2622  16.7996  5.44343
88.6554  -12.7118  5.92635
88.6554  -12.5505  6.6447
64.3495  16.5505  6.6447
88.6554  -12.1232  8.05335
64.3495  16.7118  5.92635
88.6554  -11.8582  8.74025
64.3495  16.8376  5.20096
88.6554  -11.5598  9.41333
72.6501  10.7372  15.1927
73.2528  9.35785  16.0714
70.9572  9.71154  15.8659
70.9572  10.3336  15.472
70.9572  10.9355  15.0481
88.6554  -10.8659  10.7115
72.6501  11.5159  14.5952
88.6554  -10.472  11.3336
88.6554  -10.0481  11.9355
80.255  1.34571  17.9857
88.6554  -9.11427  13.0734
80.255  3.30734  17.9429
79.6522  2.49079  17.992
79.6522  3.95789  17.8717
88.6554  -8.6066  13.6066
88.6554  -8.07338  14.1143
80.255  5.24659  17.6444
79.6522  5.40614  17.6082
88.6554  -6.93549  15.0481
79.6522  6.82159  17.204
88.6554  -6.33355  15.472
88.6554  -5.71154  15.8659
88.6554  -4.41333  16.5598
88.6554  -3.74025  16.8582
74.2276  15.663  9.19061
88.6554  -3.05335  17.1232
74.2276  16.0386  8.28375
73.3235  16.1232  8.05335
74.2276  16.3541  7.35427
73.3235  16.3541  7.35427
73.3235  16.5505  6.6447
88.6554  -1.6447  17.5505
88.6554  -0.926355  17.7118
74.2276  16.6082  6.40614
73.3235  16.7118  5.92635
88.6554  -0.200957  17.8376
74.2276  16.7996  5.44343
73.3235  16.8376  5.20096
88.6554  1.26398  17.9819
88.6554  2  18
88.6554  2.73602  17.9819
88.6554  4.20096  17.8376
88.6554  4.92635  17.7118
88.6554  5.6447  17.5505
88.6554  7.05335  17.1232
88.6554  7.74025  16.8582
88.6554  8.41333  16.5598
88.6554  9.71154  15.8659
88.6554  10.3336  15.472
88.6554  10.9355  15.0481
88.6554  12.0734  14.1143
88.6554  12.6066  13.6066
88.6554  13.1143  13.0734
88.6554  14.0481  11.9355
88.6554  14.472  11.3336
88.6554  14.8659  10.7115
88.6554  15.5598  9.41333
88.6554  15.8582  8.74025
88.6554  16.1232  8.05335
88.6554  16.5505  6.6447
88.6554  16.7118  5.92635
88.6554  16.8376  5.20096
88.6554  16.9819  3.73602
91  12.1056  3.99532
11.7111  3.94114  -4.24444
10.9177  4.93485  -3.2938
10.7193  2.8883  -3.74733
15.8765  12.3039  1.47156
15.8765  12.2633  1.21915
16.0749  12.1498  0.101565
15.8765  12.2165  0.967809
15.8765  12.1636  0.717695
15.8765  12.1045  0.468956
15.8765  12.0393  0.221742
15.8765  11.9681  -0.0237987
16.0749  12.0496  -0.228976
15.8765  11.8909  -0.267518
16.0749  11.9385  -0.55606
15.8765  11.8078  -0.509269
15.8765  11.7187  -0.748907
16.0749  11.8168  -0.879335
16.0749  11.6847  -1.19846
16.0749  11.5421  -1.51308
16.0749  11.3893  -1.82287
14.4881  2.15453  -6.44318
15.1492  4.66846  -6.54128
14.2897  3.21462  -6.22595
15.546  2.1111  -7.18458
14.8848  -0.516296  -6.39095
17.265  6.70027  -7.37373
17.265  6.1856  -7.59186
17.265  5.66084  -7.78448
17.265  5.12726  -7.95112
15.9427  -0.597611  -7.13538
15.0831  -1.62412  -6.171
17.3973  4.48505  -8.20932
20.2675  13.1351  -4.61725
20.3803  13.1583  -4.7228
20.6705  13.6432  -4.35818
20.6465  13.094  -5.13444
22.4684  16.8921  1.20445
22.4741  16.6082  -0.406144
21.2031  12.9678  -5.93452
21.7836  13.7361  -5.60524
22.4741  15.663  -3.19061
22.4741  14.1927  -5.73717
22.4741  12.2539  -7.94796
18.8519  -4.94463  -7.39337
18.8519  -3.7113  -8.11895
18.4551  -3.40575  -7.96178
18.1466  -5.06411  -6.70806
18.1907  -6.87463  -5.1321
17.9923  -5.79609  -5.98816
18.8519  -5.44624  -7.04009
22.4741  9.92102  -9.73803
22.3162  10.2923  -9.4103
18.5433  -7.02644  -5.33179
18.5874  -8.42214  -3.56
18.5874  -8.73147  -3.04071
22.4741  5.40614  -11.6082
18.1907  -9.83066  0.780608
17.9262  -9.04602  -1.29556
17.794  -9.55765  0.831825
18.0144  -9.82265  1.5309
17.6617  -9.66667  3
18.4551  -10.2222  3
22.4741  2.49079  -11.992
22.4741  1.50921  -11.992
18.4551  -10.0127  0.746464
18.8078  -10.0205  -0.314752
18.4551  -10.1289  1.49284
22.4741  -1.40614  -11.6082
19.513  -10.6758  0.286409
18.9841  -10.5926  3
20.042  -11.3333  3
20.042  -11.0771  0.398796
19.2486  -10.4749  0.234383
18.1246  -9.1516  7.40679
18.0584  -9.63242  5.7123
17.9262  -9.44801  6.06748
22.4741  -5.92102  -9.73803
22.3162  -6.2923  -9.4103
18.8519  -10.1938  5.74985
22.4741  -6.73717  -9.1927
18.4992  -9.10507  8.17838
18.1907  -8.42438  9.01852
18.6535  -9.42018  7.73039
19.2486  -10.4749  5.76562
19.513  -10.6758  5.71359
20.042  -11.0771  5.6012
22.4741  -8.94796  -7.25388
18.3229  -6.29172  11.853
17.838  -7.03176  10.5785
17.6617  -6.24958  11.2496
18.7196  -7.59106  10.8712
22.4741  -10.738  -4.92102
18.6315  -6.34062  12.1022
18.2347  -4.59472  13.1066
18.1246  -5.14288  12.6311
17.9262  -3.92593  13.264
17.9703  -2.90408  13.8235
18.4551  -3.40575  13.9618
22.4741  -12.0386  -2.28375
18.8519  -4.94463  13.3934
22.4741  -12.7996  0.556568
18.8519  -3.7113  14.119
22.4741  -12.992  3.49079
17.3973  4.48505  14.2093
17.265  5.12726  13.9511
17.265  5.66084  13.7845
17.265  6.1856  13.5919
22.4741  -12.6082  6.40614
17.265  6.70027  13.3737
46.9557  10.0595  -9.65087
16.0749  11.2265  8.1275
16.0749  11.3893  7.82287
15.8765  11.6237  6.98629
16.0749  11.5421  7.51308
22.4741  -10.738  10.921
16.0749  11.6847  7.19846
16.0749  11.8168  6.87933
15.8765  11.7187  6.74891
47.6515  8.63433  -10.4531
47.6515  9.92102  -9.73803
16.0749  11.9385  6.55606
15.8765  11.8078  6.50927
15.8765  11.8909  6.26752
16.0749  12.0496  6.22898
15.8765  11.9681  6.0238
16.0749  12.1498  5.89844
15.8765  12.0393  5.77826
15.8765  12.1045  5.53104
15.8765  12.1636  5.2823
15.8765  12.2165  5.03219
15.8765  12.2633  4.78085
22.4741  -8.94796  13.2539
15.8765  12.3039  4.52844
22.4741  -8.25388  13.948
52.5217  9.7816  -9.82368
53.9132  8.63433  -10.4531
53.9132  10.3336  -9.47204
53.9132  11.8902  -8.2776
51.826  8.63433  -10.4531
51.826  9.5  -9.99038
22.4741  -4.19061  16.663
22.3162  -3.71183  16.7896
22.4741  -3.28375  17.0386
60.3449  15.0714  -4.35785
59.3862  14.1927  -5.73717
46.4919  -4.24024  -10.6404
22.4741  -0.443432  17.7996
52.9236  5.51229  -11.583
46.9557  -4.48719  -10.5247
54.516  5.56529  -11.5701
63.8236  16.0096  -2.36024
22.4741  2.49079  17.992
62.602  14.9078  -4.64125
64.8592  14.738  -4.92102
63.5607  15.663  -3.19061
50.1406  -2.56257  -11.2893
64.6043  15.8108  -2.85344
67.4803  16.8872  1.16384
51.0372  -2.58855  -11.2809
62.509  13.3314  -6.82853
61.4735  14.9904  -4.5
20.2675  13.1351  10.6173
50.3415  -4.48719  -10.5247
20.3803  13.1583  10.7228
63.4212  13.5169  -6.61044
50.3415  -5.35785  -10.0714
48.7491  -5.68814  -9.87993
62.9418  12.8919  -7.31344
65.8179  15.4167  -3.70761
63.4212  13.2776  -6.89019
66.2972  15.7131  -3.07862
67.7352  16.4234  -1.11883
22.4741  7.28375  17.0386
22.3162  7.71183  16.7896
56.7111  3.68721  -11.9048
57.2059  5.96125  -11.4675
56.1084  6.87321  -11.1863
55.1187  2.32722  -11.9964
57.5073  4.36268  -11.8128
20.6705  13.6432  10.3582
20.6465  13.094  11.1344
51.0062  -5.68814  -9.87993
22.4741  8.19061  16.663
54.3919  -1.14001  -11.6677
55.7214  -2.35427  -11.3541
55.7214  -0.926355  -11.7118
21.2031  12.9678  11.9345
54.0286  -2.82159  -11.204
55.7214  -3.74025  -10.8582
53.7272  -1.24659  -11.6444
58.8523  4.56443  -11.7792
58.9993  6.22361  -11.3931
64.2403  11.6418  -8.49067
63.2817  10.1284  -9.60673
22.4741  10.7372  15.1927
22.3162  10.2923  15.4103
71.9674  16.8872  1.16384
47.8214  -11.5946  -3.33927
47.8214  -10.6509  -5.05949
63.9309  9.71154  -9.86593
69.8993  15.7948  -2.89108
68.2449  14.472  -5.33355
70.8419  14.1927  -5.73717
70.7265  16.2809  -1.58855
69.4281  16.3541  -1.35427
61.1944  5.6447  -11.5505
21.7836  13.7361  11.6052
63.9309  9.39347  -10.0513
72.4194  16.7577  0.314747
71.9674  16.8376  0.799043
48.95  -11.4531  -3.63433
48.95  -10.738  -4.92102
71.5922  16.3058  -1.51059
47.8214  -12.3058  -1.51059
60.8  3.47026  -11.9278
48.95  -12.0386  -2.28375
67.0618  11.5159  -8.59516
66.3276  12.7217  -7.49027
65.3689  11.7043  -8.43791
54.0286  -7.89019  -8.2776
55.7214  -6.33355  -9.47204
52.3357  -7.89019  -8.2776
52.3357  -9.2776  -6.89019
22.4741  14.1927  11.7372
72.0827  15.4531  -3.63433
72.4963  15.6965  -3.11599
72.0827  15.2862  -3.96249
22.4741  14.738  10.921
70.0147  13.3314  -6.82853
68.3603  11.3249  -8.7493
69.6011  12.8637  -7.34311
72.7977  15.4167  -3.70761
70.8996  12.693  -7.51947
68.4179  9.39347  -10.0513
58.5813  -5.64125  -9.9078
58.5813  -4.78068  -10.3799
72.5732  13.9992  -6.00107
71.746  12.948  -7.25388
58.5813  -6.4691  -9.3804
71.4831  12.3134  -7.89187
73.4388  13.9003  -6.13142
58.5813  -7.26069  -8.79999
57.4527  -8.6066  -7.6066
22.4741  16.6082  6.40614
60.0113  -5.92102  -9.73803
75.1317  14.738  -4.92102
74.3045  13.8  -6.26069
60.0113  -6.5365  -9.33402
22.4684  16.8921  4.79555
60.0113  -7.13142  -8.9003
60.0113  -7.70434  -8.43791
47.8214  -11.5946  9.33927
47.8214  -12.3058  7.51059
60.0113  -8.25388  -7.94796
48.95  -12.0386  8.28375
47.8214  -10.6509  11.0595
48.95  -11.4531  9.63433
48.95  -10.738  10.921
72.6265  7.15592  -11.086
70.1685  6.58855  -11.2809
72.3134  6.00069  -11.4566
71.0726  3.47026  -11.9278
69.7741  4.92635  -11.7118
69.7741  4.20096  -11.8376
69.7741  3.47026  -11.9278
69.7741  2.73602  -11.9819
71.0726  2.49079  -11.992
74.1569  6.89899  -11.1774
73.4612  5.8032  -11.5098
71.0726  1.50921  -11.992
73.6695  2  -12
75.386  7.48737  -10.9603
75.061  4.28185  -11.8254
73.9945  5.29982  -11.6325
46.4919  -4.24024  16.6404
46.9557  -4.48719  16.5247
76.4525  6.51059  -11.3058
78.7481  8.63433  -10.4531
77.844  8.63433  -10.4531
77.5191  6.14504  -11.4159
79.6522  9.21483  -10.1509
74.999  1.78184  -11.9984
73.6695  0.529743  -11.9278
51.0062  -5.68814  15.8799
89.8546  16.9594  1.89653
89.8546  16.9955  2.63188
50.3415  -4.48719  16.5247
50.3415  -5.35785  16.0714
48.7491  -5.68814  15.8799
75.6638  1.67278  -11.9964
80.5563  8.63433  -10.4531
70.5467  -6.4691  -9.3804
70.5467  -5.64125  -9.9078
68.9853  -6.5365  -9.33402
68.9853  -7.13142  -8.9003
89.8546  16.7792  0.435572
70.5467  -7.26069  -8.79999
68.9853  -7.70434  -8.43791
68.9853  -8.25388  -7.94796
89.8546  16.7118  0.0736452
50.1406  -2.56257  17.2893
54.0286  -7.89019  14.2776
55.7214  -6.33355  15.472
52.3357  -7.89019  14.2776
52.3357  -9.2776  12.8902
76.9932  1.94546  -11.9999
89.8546  16.6355  -0.286519
89.8546  16.4566  -1.00069
51.0372  -2.58855  17.2809
89.8546  15.9949  -2.39843
89.8546  15.8582  -2.74025
71.4124  -8.6066  -7.6066
89.8546  15.7131  -3.07862
89.8546  15.3984  -3.74417
78.2607  -0.765703  -11.7428
89.8546  14.6728  -5.02496
89.8546  14.472  -5.33355
54.0286  -2.82159  17.204
55.7214  -2.35427  17.3541
55.7214  -3.74025  16.8582
89.8546  14.2638  -5.63712
79.3273  -0.819291  -11.7327
89.8546  13.8252  -6.22847
74.968  -7.89019  -8.2776
76.2665  -7.89019  -8.2776
76.2665  -9.2776  -6.89019
58.5813  -7.26069  14.8
57.4527  -8.6066  13.6066
46.9557  10.0595  15.6509
47.6515  8.63433  16.4531
54.3919  -1.14001  17.6677
55.7214  -0.926355  17.7118
53.7272  -1.24659  17.6444
89.8546  12.8637  -7.34311
89.8546  12.6066  -7.6066
60.0113  -8.25388  13.948
58.5813  -6.4691  15.3804
47.6515  9.92102  15.738
89.8546  12.3431  -7.86371
60.0113  -7.70434  14.4379
58.5813  -5.64125  15.9078