VARIABLES = X , Y
Zone T = upper
-150  0
-149.4  8.93532
-148.8  12.6238
-148.2  15.4454
-147.6  17.8168
-147  19.8997
-146.4  21.7771
-145.8  23.4981
-145.2  25.095
-144.6  26.5902
-144  28
-143.4  29.3367
-142.8  30.6098
-142.2  31.827
-141.6  32.9945
-141  34.1174
-140.4  35.2
-139.8  36.2458
-139.2  37.258
-138.6  38.2392
-138  39.1918
-137.4  40.1178
-136.8  41.019
-136.2  41.897
-135.6  42.7532
-135  43.589
-134.4  44.4054
-133.8  45.2035
-133.2  45.9843
-132.6  46.7487
-132  47.4974
-131.4  48.2311
-130.8  48.9506
-130.2  49.6564
-129.6  50.3492
-129  51.0294
-128.4  51.6976
-127.8  52.3542
-127.2  52.9996
-126.6  53.6343
-126  54.2586
-125.4  54.8729
-124.8  55.4776
-124.2  56.0728
-123.6  56.659
-123  57.2364
-122.4  57.8052
-121.8  58.3657
-121.2  58.9182
-120.6  59.4629
-120  60
-119.4  60.5297
-118.8  61.0521
-118.2  61.5675
-117.6  62.0761
-117  62.578
-116.4  63.0733
-115.8  63.5623
-115.2  64.045
-114.6  64.5216
-114  64.9923
-113.4  65.4572
-112.8  65.9163
-112.2  66.3699
-111.6  66.818
-111  67.2607
-110.4  67.6982
-109.8  68.1305
-109.2  68.5577
-108.6  68.98
-108  69.3974
-107.4  69.81
-106.8  70.2179
-106.2  70.6212
-105.6  71.02
-105  71.4143
-104.4  71.8042
-103.8  72.1897
-103.2  72.5711
-102.6  72.9482
-102  73.3212
-101.4  73.6902
-100.8  74.0551
-100.2  74.4161
-99.6  74.7733
-99  75.1266
-98.4  75.4761
-97.8  75.8219
-97.2  76.164
-96.6  76.5025
-96  76.8375
-95.4  77.1689
-94.8  77.4968
-94.2  77.8213
-93.6  78.1424
-93  78.4602
-92.4  78.7746
-91.8  79.0858
-91.2  79.3937
-90.6  79.6984
-90  80
-89.4  80.2984
-88.8  80.5938
-88.2  80.8861
-87.6  81.1754
-87  81.4616
-86.4  81.745
-85.8  82.0254
-85.2  82.3029
-84.6  82.5775
-84  82.8493
-83.4  83.1182
-82.8  83.3844
-82.2  83.6478
-81.6  83.9085
-81  84.1665
-80.4  84.4218
-79.8  84.6744
-79.2  84.9244
-78.6  85.1718
-78  85.4166
-77.4  85.6589
-76.8  85.8985
-76.2  86.1357
-75.6  86.3704
-75  86.6025
-74.4  86.8323
-73.8  87.0595
-73.2  87.2844
-72.6  87.5068
-72  87.7268
-71.4  87.9445
-70.8  88.1599
-70.2  88.3728
-69.6  88.5835
-69  88.7919
-68.4  88.998
-67.8  89.2018
-67.2  89.4034
-66.6  89.6027
-66  89.7998
-65.4  89.9947
-64.8  90.1874
-64.2  90.3779
-63.6  90.5662
-63  90.7524
-62.4  90.9365
-61.8  91.1184
-61.2  91.2982
-60.6  91.4759
-60  91.6515
-59.4  91.8251
-58.8  91.9965
-58.2  92.1659
-57.6  92.3333
-57  92.4986
-56.4  92.662
-55.8  92.8233
-55.2  92.9826
-54.6  93.1399
-54  93.2952
-53.4  93.4486
-52.8  93.6
-52.2  93.7495
-51.6  93.897
-51  94.0425
-50.4  94.1862
-49.8  94.3279
-49.2  94.4678
-48.6  94.6057
-48  94.7418
-47.4  94.8759
-46.8  95.0082
-46.2  95.1386
-45.6  95.2672
-45  95.3939
-44.4  95.5188
-43.8  95.6418
-43.2  95.763
-42.6  95.8824
-42  96
-41.4  96.1158
-40.8  96.2297
-40.2  96.3419
-39.6  96.4523
-39  96.5609
-38.4  96.6677
-37.8  96.7727
-37.2  96.876
-36.6  96.9775
-36  97.0773
-35.4  97.1753
-34.8  97.2716
-34.2  97.3661
-33.6  97.4589
-33  97.55
-32.4  97.6393
-31.8  97.727
-31.2  97.8129
-30.6  97.8971
-30  97.9796
-29.4  98.0604
-28.8  98.1395
-28.2  98.2169
-27.6  98.2926
-27  98.3667
-26.4  98.439
-25.8  98.5097
-25.2  98.5787
-24.6  98.646
-24  98.7117
-23.4  98.7757
-22.8  98.838
-22.2  98.8987
-21.6  98.9578
-21  99.0152
-20.4  99.0709
-19.8  99.125
-19.2  99.1774
-18.6  99.2282
-18  99.2774
-17.4  99.3249
-16.8  99.3708
-16.2  99.4151
-15.6  99.4577
-15  99.4987
-14.4  99.5381
-13.8  99.5759
-13.2  99.612
-12.6  99.6466
-12  99.6795
-11.4  99.7108
-10.8  99.7405
-10.2  99.7685
-9.6  99.795
-9  99.8198
-8.4  99.8431
-7.8  99.8647
-7.2  99.8847
-6.6  99.9032
-6  99.92
-5.4  99.9352
-4.8  99.9488
-4.2  99.9608
-3.6  99.9712
-3  99.98
-2.4  99.9872
-1.8  99.9928
-1.2  99.9968
-0.6  99.9992
0  100
0.6  99.9992
1.2  99.9968
1.8  99.9928
2.4  99.9872
3  99.98
3.6  99.9712
4.2  99.9608
4.8  99.9488
5.4  99.9352
6  99.92
6.6  99.9032
7.2  99.8847
7.8  99.8647
8.4  99.8431
9  99.8198
9.6  99.795
10.2  99.7685
10.8  99.7405
11.4  99.7108
12  99.6795
12.6  99.6466
13.2  99.612
13.8  99.5759
14.4  99.5381
15  99.4987
15.6  99.4577
16.2  99.4151
16.8  99.3708
17.4  99.3249
18  99.2774
18.6  99.2282
19.2  99.1774
19.8  99.125
20.4  99.0709
21  99.0152
21.6  98.9578
22.2  98.8987
22.8  98.838
23.4  98.7757
24  98.7117
24.6  98.646
25.2  98.5787
25.8  98.5097
26.4  98.439
27  98.3667
27.6  98.2926
28.2  98.2169
28.8  98.1395
29.4  98.0604
30  97.9796
30.6  97.8971
31.2  97.8129
31.8  97.727
32.4  97.6393
33  97.55
33.6  97.4589
34.2  97.3661
34.8  97.2716
35.4  97.1753
36  97.0773
36.6  96.9775
37.2  96.876
37.8  96.7727
38.4  96.6677
39  96.5609
39.6  96.4523
40.2  96.3419
40.8  96.2297
41.4  96.1158
42  96
42.6  95.8824
43.2  95.763
43.8  95.6418
44.4  95.5188
45  95.3939
45.6  95.2672
46.2  95.1386
46.8  95.0082
47.4  94.8759
48  94.7418
48.6  94.6057
49.2  94.4678
49.8  94.3279
50.4  94.1862
51  94.0425
51.6  93.897
52.2  93.7495
52.8  93.6
53.4  93.4486
54  93.2952
54.6  93.1399
55.2  92.9826
55.8  92.8233
56.4  92.662
57  92.4986
57.6  92.3333
58.2  92.1659
58.8  91.9965
59.4  91.8251
60  91.6515
60.6  91.4759
61.2  91.2982
61.8  91.1184
62.4  90.9365
63  90.7524
63.6  90.5662
64.2  90.3779
64.8  90.1874
65.4  89.9947
66  89.7998
66.6  89.6027
67.2  89.4034
67.8  89.2018
68.4  88.998
69  88.7919
69.6  88.5835
70.2  88.3728
70.8  88.1599
71.4  87.9445
72  87.7268
72.6  87.5068
73.2  87.2844
73.8  87.0595
74.4  86.8323
75  86.6025
75.6  86.3704
76.2  86.1357
76.8  85.8985
77.4  85.6589
78  85.4166
78.6  85.1718
79.2  84.9244
79.8  84.6744
80.4  84.4218
81  84.1665
81.6  83.9085
82.2  83.6478
82.8  83.3844
83.4  83.1182
84  82.8493
84.6  82.5775
85.2  82.3029
85.8  82.0254
86.4  81.745
87  81.4616
87.6  81.1754
88.2  80.8861
88.8  80.5938
89.4  80.2984
90  80
90.6  79.6984
91.2  79.3937
91.8  79.0858
92.4  78.7746
93  78.4602
93.6  78.1424
94.2  77.8213
94.8  77.4968
95.4  77.1689
96  76.8375
96.6  76.5025
97.2  76.164
97.8  75.8219
98.4  75.4761
99  75.1266
99.6  74.7733
100.2  74.4161
100.8  74.0551
101.4  73.6902
102  73.3212
102.6  72.9482
103.2  72.5711
103.8  72.1897
104.4  71.8042
105  71.4143
105.6  71.02
106.2  70.6212
106.8  70.2179
107.4  69.81
108  69.3974
108.6  68.98
109.2  68.5577
109.8  68.1305
110.4  67.6982
111  67.2607
111.6  66.818
112.2  66.3699
112.8  65.9163
113.4  65.4572
114  64.9923
114.6  64.5216
115.2  64.045
115.8  63.5623
116.4  63.0733
117  62.578
117.6  62.0761
118.2  61.5675
118.8  61.0521
119.4  60.5297
120  60
120.6  59.4629
121.2  58.9182
121.8  58.3657
122.4  57.8052
123  57.2364
123.6  56.659
124.2  56.0728
124.8  55.4776
125.4  54.8729
126  54.2586
126.6  53.6343
127.2  52.9996
127.8  52.3542
128.4  51.6976
129  51.0294
129.6  50.3492
130.2  49.6564
130.8  48.9506
131.4  48.2311
132  47.4974
132.6  46.7487
133.2  45.9843
133.8  45.2035
134.4  44.4054
135  43.589
135.6  42.7532
136.2  41.897
136.8  41.019
137.4  40.1178
138  39.1918
138.6  38.2392
139.2  37.258
139.8  36.2458
140.4  35.2
141  34.1174
141.6  32.9945
142.2  31.827
142.8  30.6098
143.4  29.3367
144  28
144.6  26.5902
145.2  25.095
145.8  23.4981
146.4  21.7771
147  19.8997
147.6  17.8168
148.2  15.4454
148.8  12.6238
149.4  8.93532
150  0
VARIABLES = X , Y
Zone T = lower
-150  -0
-149.4  -8.93532
-148.8  -12.6238
-148.2  -15.4454
-147.6  -17.8168
-147  -19.8997
-146.4  -21.7771
-145.8  -23.4981
-145.2  -25.095
-144.6  -26.5902
-144  -28
-143.4  -29.3367
-142.8  -30.6098
-142.2  -31.827
-141.6  -32.9945
-141  -34.1174
-140.4  -35.2
-139.8  -36.2458
-139.2  -37.258
-138.6  -38.2392
-138  -39.1918
-137.4  -40.1178
-136.8  -41.019
-136.2  -41.897
-135.6  -42.7532
-135  -43.589
-134.4  -44.4054
-133.8  -45.2035
-133.2  -45.9843
-132.6  -46.7487
-132  -47.4974
-131.4  -48.2311
-130.8  -48.9506
-130.2  -49.6564
-129.6  -50.3492
-129  -51.0294
-128.4  -51.6976
-127.8  -52.3542
-127.2  -52.9996
-126.6  -53.6343
-126  -54.2586
-125.4  -54.8729
-124.8  -55.4776
-124.2  -56.0728
-123.6  -56.659
-123  -57.2364
-122.4  -57.8052
-121.8  -58.3657
-121.2  -58.9182
-120.6  -59.4629
-120  -60
-119.4  -60.5297
-118.8  -61.0521
-118.2  -61.5675
-117.6  -62.0761
-117  -62.578
-116.4  -63.0733
-115.8  -63.5623
-115.2  -64.045
-114.6  -64.5216
-114  -64.9923
-113.4  -65.4572
-112.8  -65.9163
-112.2  -66.3699
-111.6  -66.818
-111  -67.2607
-110.4  -67.6982
-109.8  -68.1305
-109.2  -68.5577
-108.6  -68.98
-108  -69.3974
-107.4  -69.81
-106.8  -70.2179
-106.2  -70.6212
-105.6  -71.02
-105  -71.4143
-104.4  -71.8042
-103.8  -72.1897
-103.2  -72.5711
-102.6  -72.9482
-102  -73.3212
-101.4  -73.6902
-100.8  -74.0551
-100.2  -74.4161
-99.6  -74.7733
-99  -75.1266
-98.4  -75.4761
-97.8  -75.8219
-97.2  -76.164
-96.6  -76.5025
-96  -76.8375
-95.4  -77.1689
-94.8  -77.4968
-94.2  -77.8213
-93.6  -78.1424
-93  -78.4602
-92.4  -78.7746
-91.8  -79.0858
-91.2  -79.3937
-90.6  -79.6984
-90  -80
-89.4  -80.2984
-88.8  -80.5938
-88.2  -80.8861
-87.6  -81.1754
-87  -81.4616
-86.4  -81.745
-85.8  -82.0254
-85.2  -82.3029
-84.6  -82.5775
-84  -82.8493
-83.4  -83.1182
-82.8  -83.3844
-82.2  -83.6478
-81.6  -83.9085
-81  -84.1665
-80.4  -84.4218
-79.8  -84.6744
-79.2  -84.9244
-78.6  -85.1718
-78  -85.4166
-77.4  -85.6589
-76.8  -85.8985
-76.2  -86.1357
-75.6  -86.3704
-75  -86.6025
-74.4  -86.8323
-73.8  -87.0595
-73.2  -87.2844
-72.6  -87.5068
-72  -87.7268
-71.4  -87.9445
-70.8  -88.1599
-70.2  -88.3728
-69.6  -88.5835
-69  -88.7919
-68.4  -88.998
-67.8  -89.2018
-67.2  -89.4034
-66.6  -89.6027
-66  -89.7998
-65.4  -89.9947
-64.8  -90.1874
-64.2  -90.3779
-63.6  -90.5662
-63  -90.7524
-62.4  -90.9365
-61.8  -91.1184
-61.2  -91.2982
-60.6  -91.4759
-60  -91.6515
-59.4  -91.8251
-58.8  -91.9965
-58.2  -92.1659
-57.6  -92.3333
-57  -92.4986
-56.4  -92.662
-55.8  -92.8233
-55.2  -92.9826
-54.6  -93.1399
-54  -93.2952
-53.4  -93.4486
-52.8  -93.6
-52.2  -93.7495
-51.6  -93.897
-51  -94.0425
-50.4  -94.1862
-49.8  -94.3279
-49.2  -94.4678
-48.6  -94.6057
-48  -94.7418
-47.4  -94.8759
-46.8  -95.0082
-46.2  -95.1386
-45.6  -95.2672
-45  -95.3939
-44.4  -95.5188
-43.8  -95.6418
-43.2  -95.763
-42.6  -95.8824
-42  -96
-41.4  -96.1158
-40.8  -96.2297
-40.2  -96.3419
-39.6  -96.4523
-39  -96.5609
-38.4  -96.6677
-37.8  -96.7727
-37.2  -96.876
-36.6  -96.9775
-36  -97.0773
-35.4  -97.1753
-34.8  -97.2716
-34.2  -97.3661
-33.6  -97.4589
-33  -97.55
-32.4  -97.6393
-31.8  -97.727
-31.2  -97.8129
-30.6  -97.8971
-30  -97.9796
-29.4  -98.0604
-28.8  -98.1395
-28.2  -98.2169
-27.6  -98.2926
-27  -98.3667
-26.4  -98.439
-25.8  -98.5097
-25.2  -98.5787
-24.6  -98.646
-24  -98.7117
-23.4  -98.7757
-22.8  -98.838
-22.2  -98.8987
-21.6  -98.9578
-21  -99.0152
-20.4  -99.0709
-19.8  -99.125
-19.2  -99.1774
-18.6  -99.2282
-18  -99.2774
-17.4  -99.3249
-16.8  -99.3708
-16.2  -99.4151
-15.6  -99.4577
-15  -99.4987
-14.4  -99.5381
-13.8  -99.5759
-13.2  -99.612
-12.6  -99.6466
-12  -99.6795
-11.4  -99.7108
-10.8  -99.7405
-10.2  -99.7685
-9.6  -99.795
-9  -99.8198
-8.4  -99.8431
-7.8  -99.8647
-7.2  -99.8847
-6.6  -99.9032
-6  -99.92
-5.4  -99.9352
-4.8  -99.9488
-4.2  -99.9608
-3.6  -99.9712
-3  -99.98
-2.4  -99.9872
-1.8  -99.9928
-1.2  -99.9968
-0.6  -99.9992
0  -100
0.6  -99.9992
1.2  -99.9968
1.8  -99.9928
2.4  -99.9872
3  -99.98
3.6  -99.9712
4.2  -99.9608
4.8  -99.9488
5.4  -99.9352
6  -99.92
6.6  -99.9032
7.2  -99.8847
7.8  -99.8647
8.4  -99.8431
9  -99.8198
9.6  -99.795
10.2  -99.7685
10.8  -99.7405
11.4  -99.7108
12  -99.6795
12.6  -99.6466
13.2  -99.612
13.8  -99.5759
14.4  -99.5381
15  -99.4987
15.6  -99.4577
16.2  -99.4151
16.8  -99.3708
17.4  -99.3249
18  -99.2774
18.6  -99.2282
19.2  -99.1774
19.8  -99.125
20.4  -99.0709
21  -99.0152
21.6  -98.9578
22.2  -98.8987
22.8  -98.838
23.4  -98.7757
24  -98.7117
24.6  -98.646
25.2  -98.5787
25.8  -98.5097
26.4  -98.439
27  -98.3667
27.6  -98.2926
28.2  -98.2169
28.8  -98.1395
29.4  -98.0604
30  -97.9796
30.6  -97.8971
31.2  -97.8129
31.8  -97.727
32.4  -97.6393
33  -97.55
33.6  -97.4589
34.2  -97.3661
34.8  -97.2716
35.4  -97.1753
36  -97.0773
36.6  -96.9775
37.2  -96.876
37.8  -96.7727
38.4  -96.6677
39  -96.5609
39.6  -96.4523
40.2  -96.3419
40.8  -96.2297
41.4  -96.1158
42  -96
42.6  -95.8824
43.2  -95.763
43.8  -95.6418
44.4  -95.5188
45  -95.3939
45.6  -95.2672
46.2  -95.1386
46.8  -95.0082
47.4  -94.8759
48  -94.7418
48.6  -94.6057
49.2  -94.4678
49.8  -94.3279
50.4  -94.1862
51  -94.0425
51.6  -93.897
52.2  -93.7495
52.8  -93.6
53.4  -93.4486
54  -93.2952
54.6  -93.1399
55.2  -92.9826
55.8  -92.8233
56.4  -92.662
57  -92.4986
57.6  -92.3333
58.2  -92.1659
58.8  -91.9965
59.4  -91.8251
60  -91.6515
60.6  -91.4759
61.2  -91.2982
61.8  -91.1184
62.4  -90.9365
63  -90.7524
63.6  -90.5662
64.2  -90.3779
64.8  -90.1874
65.4  -89.9947
66  -89.7998
66.6  -89.6027
67.2  -89.4034
67.8  -89.2018
68.4  -88.998
69  -88.7919
69.6  -88.5835
70.2  -88.3728
70.8  -88.1599
71.4  -87.9445
72  -87.7268
72.6  -87.5068
73.2  -87.2844
73.8  -87.0595
74.4  -86.8323
75  -86.6025
75.6  -86.3704
76.2  -86.1357
76.8  -85.8985
77.4  -85.6589
78  -85.4166
78.6  -85.1718
79.2  -84.9244
79.8  -84.6744
80.4  -84.4218
81  -84.1665
81.6  -83.9085
82.2  -83.6478
82.8  -83.3844
83.4  -83.1182
84  -82.8493
84.6  -82.5775
85.2  -82.3029
85.8  -82.0254
86.4  -81.745
87  -81.4616
87.6  -81.1754
88.2  -80.8861
88.8  -80.5938
89.4  -80.2984
90  -80
90.6  -79.6984
91.2  -79.3937
91.8  -79.0858
92.4  -78.7746
93  -78.4602
93.6  -78.1424
94.2  -77.8213
94.8  -77.4968
95.4  -77.1689
96  -76.8375
96.6  -76.5025
97.2  -76.164
97.8  -75.8219
98.4  -75.4761
99  -75.1266
99.6  -74.7733
100.2  -74.4161
100.8  -74.0551
101.4  -73.6902
102  -73.3212
102.6  -72.9482
103.2  -72.5711
103.8  -72.1897
104.4  -71.8042
105  -71.4143
105.6  -71.02
106.2  -70.6212
106.8  -70.2179
107.4  -69.81
108  -69.3974
108.6  -68.98
109.2  -68.5577
109.8  -68.1305
110.4  -67.6982
111  -67.2607
111.6  -66.818
112.2  -66.3699
112.8  -65.9163
113.4  -65.4572
114  -64.9923
114.6  -64.5216
115.2  -64.045
115.8  -63.5623
116.4  -63.0733
117  -62.578
117.6  -62.0761
118.2  -61.5675
118.8  -61.0521
119.4  -60.5297
120  -60
120.6  -59.4629
121.2  -58.9182
121.8  -58.3657
122.4  -57.8052
123  -57.2364
123.6  -56.659
124.2  -56.0728
124.8  -55.4776
125.4  -54.8729
126  -54.2586
126.6  -53.6343
127.2  -52.9996
127.8  -52.3542
128.4  -51.6976
129  -51.0294
129.6  -50.3492
130.2  -49.6564
130.8  -48.9506
131.4  -48.2311
132  -47.4974
132.6  -46.7487
133.2  -45.9843
133.8  -45.2035
134.4  -44.4054
135  -43.589
135.6  -42.7532
136.2  -41.897
136.8  -41.019
137.4  -40.1178
138  -39.1918
138.6  -38.2392
139.2  -37.258
139.8  -36.2458
140.4  -35.2
141  -34.1174
141.6  -32.9945
142.2  -31.827
142.8  -30.6098
143.4  -29.3367
144  -28
144.6  -26.5902
145.2  -25.095
145.8  -23.4981
146.4  -21.7771
147  -19.8997
147.6  -17.8168
148.2  -15.4454
148.8  -12.6238
149.4  -8.93532
150  -0
