VARIABLES = X , Y
Zone T = upper
0  0
0.02  0.0340741
0.04  0.0471955
0.06  0.0568029
0.08  0.0645544
0.1  0.0710937
0.12  0.0767516
0.14  0.0817255
0.16  0.0861445
0.18  0.090099
0.2  0.0936552
0.22  0.0968634
0.24  0.0997631
0.26  0.102386
0.28  0.104759
0.3  0.106902
0.32  0.108835
0.34  0.110573
0.36  0.11213
0.38  0.113518
0.4  0.114747
0.42  0.115827
0.44  0.116767
0.46  0.117573
0.48  0.118254
0.5  0.118815
0.52  0.119262
0.54  0.119601
0.56  0.119836
0.58  0.119972
0.6  0.120014
0.62  0.119965
0.64  0.119829
0.66  0.11961
0.68  0.119311
0.7  0.118935
0.72  0.118484
0.74  0.117963
0.76  0.117372
0.78  0.116716
0.8  0.115996
0.82  0.115214
0.84  0.114373
0.86  0.113474
0.88  0.112519
0.9  0.111511
0.92  0.110451
0.94  0.109341
0.96  0.108182
0.98  0.106975
1  0.105723
1.02  0.104426
1.04  0.103086
1.06  0.101704
1.08  0.100281
1.1  0.098818
1.12  0.0973163
1.14  0.0957769
1.16  0.0942006
1.18  0.0925883
1.2  0.0909408
1.22  0.0892588
1.24  0.0875431
1.26  0.0857944
1.28  0.0840132
1.3  0.0822001
1.32  0.0803556
1.34  0.0784803
1.36  0.0765745
1.38  0.0746386
1.4  0.0726731
1.42  0.0706781
1.44  0.068654
1.46  0.0666009
1.48  0.0645192
1.5  0.0624088
1.52  0.0602699
1.54  0.0581026
1.56  0.0559069
1.58  0.0536828
1.6  0.0514302
1.62  0.049149
1.64  0.0468392
1.66  0.0445005
1.68  0.0421328
1.7  0.0397358
1.72  0.0373093
1.74  0.0348529
1.76  0.0323663
1.78  0.0298491
1.8  0.027301
1.82  0.0247214
1.84  0.0221099
1.86  0.019466
1.88  0.0167891
1.9  0.0140786
1.92  0.011334
1.94  0.0085545
1.96  0.00573949
1.98  0.00288824
2  -3.33067e-17
VARIABLES = X , Y
Zone T = lower
0  -0
0.02  -0.0340741
0.04  -0.0471955
0.06  -0.0568029
0.08  -0.0645544
0.1  -0.0710937
0.12  -0.0767516
0.14  -0.0817255
0.16  -0.0861445
0.18  -0.090099
0.2  -0.0936552
0.22  -0.0968634
0.24  -0.0997631
0.26  -0.102386
0.28  -0.104759
0.3  -0.106902
0.32  -0.108835
0.34  -0.110573
0.36  -0.11213
0.38  -0.113518
0.4  -0.114747
0.42  -0.115827
0.44  -0.116767
0.46  -0.117573
0.48  -0.118254
0.5  -0.118815
0.52  -0.119262
0.54  -0.119601
0.56  -0.119836
0.58  -0.119972
0.6  -0.120014
0.62  -0.119965
0.64  -0.119829
0.66  -0.11961
0.68  -0.119311
0.7  -0.118935
0.72  -0.118484
0.74  -0.117963
0.76  -0.117372
0.78  -0.116716
0.8  -0.115996
0.82  -0.115214
0.84  -0.114373
0.86  -0.113474
0.88  -0.112519
0.9  -0.111511
0.92  -0.110451
0.94  -0.109341
0.96  -0.108182
0.98  -0.106975
1  -0.105723
1.02  -0.104426
1.04  -0.103086
1.06  -0.101704
1.08  -0.100281
1.1  -0.098818
1.12  -0.0973163
1.14  -0.0957769
1.16  -0.0942006
1.18  -0.0925883
1.2  -0.0909408
1.22  -0.0892588
1.24  -0.0875431
1.26  -0.0857944
1.28  -0.0840132
1.3  -0.0822001
1.32  -0.0803556
1.34  -0.0784803
1.36  -0.0765745
1.38  -0.0746386
1.4  -0.0726731
1.42  -0.0706781
1.44  -0.068654
1.46  -0.0666009
1.48  -0.0645192
1.5  -0.0624088
1.52  -0.0602699
1.54  -0.0581026
1.56  -0.0559069
1.58  -0.0536828
1.6  -0.0514302
1.62  -0.049149
1.64  -0.0468392
1.66  -0.0445005
1.68  -0.0421328
1.7  -0.0397358
1.72  -0.0373093
1.74  -0.0348529
1.76  -0.0323663
1.78  -0.0298491
1.8  -0.027301
1.82  -0.0247214
1.84  -0.0221099
1.86  -0.019466
1.88  -0.0167891
1.9  -0.0140786
1.92  -0.011334
1.94  -0.0085545
1.96  -0.00573949
1.98  -0.00288824
2  3.33067e-17
