VARIABLES = X Y Z
ZONE T = Curve
1  2  3
1.00704  2.11291  3.2305
1.02752  2.2121  3.44237
1.06048  2.29822  3.63619
1.10496  2.37197  3.81254
1.16  2.434  3.972
1.22464  2.48499  4.11514
1.29792  2.52562  4.24253
1.37888  2.55654  4.35475
1.46656  2.57845  4.45238
1.56  2.592  4.536
1.65824  2.59787  4.60618
1.76032  2.59674  4.66349
1.86528  2.58926  4.70851
1.97216  2.57613  4.74182
2.08  2.558  4.764
2.18784  2.53555  4.77562
2.29472  2.50946  4.77725
2.39968  2.48038  4.76947
2.50176  2.44901  4.75286
2.6  2.416  4.728
2.69344  2.38203  4.69546
2.78112  2.34778  4.65581
2.86208  2.3139  4.60963
2.93536  2.28109  4.5575
3  2.25  4.5
3.0553  2.22122  4.43775
3.10157  2.19493  4.37158
3.13939  2.17123  4.30237
3.16934  2.15022  4.23102
3.192  2.132  4.1584
3.20794  2.11666  4.0854
3.21773  2.10429  4.01289
3.22195  2.09499  3.94177
3.22118  2.08886  3.87291
3.216  2.086  3.8072
3.20698  2.0865  3.74552
3.19469  2.09045  3.68876
3.17971  2.09795  3.6378
3.16262  2.1091  3.59352
3.144  2.124  3.5568
3.12442  2.14274  3.52853
3.10445  2.16541  3.50959
3.08467  2.19211  3.50087
3.06566  2.22294  3.50324
3.048  2.258  3.5176
3.03226  2.29738  3.54482
3.01901  2.34117  3.58579
3.00883  2.38947  3.64138
3.0023  2.44238  3.71249
3  2.5  3.8
