VARIABLES = X Y Z
Zone  I = 3 ,J = 3 , Datapacking = Point
0.309017  -0.951057  -4.44089e-16
-0.0182373  -0.713292  1.5
-0.345492  -0.475528  3
0.654508  -0.475528  -4.44089e-16
0.327254  -0.237764  1.5
-8.32667e-17  1.94289e-16  3
1  -2.12034e-17  -4.44089e-16
0.672746  0.237764  1.5
0.345492  0.475528  3
VARIABLES = X Y Z
Zone  I = 2 ,J = 2 , Datapacking = Point
1  -5.55112e-17  -6.66134e-16
0.345492  -0.475528  3
0.309017  0.951057  -6.66134e-16
-0.345492  0.475528  3
VARIABLES = X Y Z
Zone  I = 2 ,J = 2 , Datapacking = Point
-0.559017  -0.181636  3
-0.809017  0.587785  -2.22045e-16
0.559017  0.181636  3
0.309017  0.951057  -2.22045e-16
VARIABLES = X Y Z
Zone  I = 2 ,J = 2 , Datapacking = Point
3.33067e-16  0.587785  3
2.22045e-16  -0.587785  3
-0.809017  0.587785  -2.22045e-16
-0.809017  -0.587785  -2.22045e-16
VARIABLES = X Y Z
Zone  I = 2 ,J = 2 , Datapacking = Point
0.559017  -0.181636  3
0.309017  -0.951057  -2.22045e-16
-0.559017  0.181636  3
-0.809017  -0.587785  -2.22045e-16
VARIABLES = X Y Z
Zone  I = 2 ,J = 2 , Datapacking = Point
0.309017  -0.951057  -4.44089e-16
-0.345492  -0.475528  3
1  -2.12034e-17  -4.44089e-16
0.345492  0.475528  3
