VARIABLES = X Y Z
ZONE N =3, E =1, DATAPACKING = POINT, ZONETYPE = FETRIANGLE
3  0  0
2.97634  0.376  0
2  3  15
3  1  2
VARIABLES = X Y Z
ZONE N =3, E =1, DATAPACKING = POINT, ZONETYPE = FETRIANGLE
2.97634  0.376  0
2.90575  0.74607  0
2  3  15
3  1  2
VARIABLES = X Y Z
ZONE N =3, E =1, DATAPACKING = POINT, ZONETYPE = FETRIANGLE
2.90575  0.74607  0
2.78933  1.10437  0
2  3  15
3  1  2
VARIABLES = X Y Z
ZONE N =3, E =1, DATAPACKING = POINT, ZONETYPE = FETRIANGLE
2.78933  1.10437  0
2.62892  1.44526  0
2  3  15
3  1  2
VARIABLES = X Y Z
ZONE N =3, E =1, DATAPACKING = POINT, ZONETYPE = FETRIANGLE
2.62892  1.44526  0
2.42705  1.76336  0
2  3  15
3  1  2
VARIABLES = X Y Z
ZONE N =3, E =1, DATAPACKING = POINT, ZONETYPE = FETRIANGLE
2.42705  1.76336  0
2.18691  2.05364  0
2  3  15
3  1  2
VARIABLES = X Y Z
ZONE N =3, E =1, DATAPACKING = POINT, ZONETYPE = FETRIANGLE
2.18691  2.05364  0
1.91227  2.31154  0
2  3  15
1  2  3
VARIABLES = X Y Z
ZONE N =3, E =1, DATAPACKING = POINT, ZONETYPE = FETRIANGLE
1.91227  2.31154  0
1.60748  2.53298  0
2  3  15
1  2  3
VARIABLES = X Y Z
ZONE N =3, E =1, DATAPACKING = POINT, ZONETYPE = FETRIANGLE
1.60748  2.53298  0
1.27734  2.71448  0
2  3  15
1  2  3
VARIABLES = X Y Z
ZONE N =3, E =1, DATAPACKING = POINT, ZONETYPE = FETRIANGLE
1.27734  2.71448  0
0.927051  2.85317  0
2  3  15
1  2  3
VARIABLES = X Y Z
ZONE N =3, E =1, DATAPACKING = POINT, ZONETYPE = FETRIANGLE
0.927051  2.85317  0
0.562144  2.94686  0
2  3  15
1  2  3
VARIABLES = X Y Z
ZONE N =3, E =1, DATAPACKING = POINT, ZONETYPE = FETRIANGLE
0.562144  2.94686  0
0.188372  2.99408  0
2  3  15
1  2  3
VARIABLES = X Y Z
ZONE N =3, E =1, DATAPACKING = POINT, ZONETYPE = FETRIANGLE
0.188372  2.99408  0
-0.188372  2.99408  0
2  3  15
3  1  2
VARIABLES = X Y Z
ZONE N =3, E =1, DATAPACKING = POINT, ZONETYPE = FETRIANGLE
-0.188372  2.99408  0
-0.562144  2.94686  0
2  3  15
1  2  3
VARIABLES = X Y Z
ZONE N =3, E =1, DATAPACKING = POINT, ZONETYPE = FETRIANGLE
-0.562144  2.94686  0
-0.927051  2.85317  0
2  3  15
1  2  3
VARIABLES = X Y Z
ZONE N =3, E =1, DATAPACKING = POINT, ZONETYPE = FETRIANGLE
-0.927051  2.85317  0
-1.27734  2.71448  0
2  3  15
1  2  3
VARIABLES = X Y Z
ZONE N =3, E =1, DATAPACKING = POINT, ZONETYPE = FETRIANGLE
-1.27734  2.71448  0
-1.60748  2.53298  0
2  3  15
1  2  3
VARIABLES = X Y Z
ZONE N =3, E =1, DATAPACKING = POINT, ZONETYPE = FETRIANGLE
-1.60748  2.53298  0
-1.91227  2.31154  0
2  3  15
1  2  3
VARIABLES = X Y Z
ZONE N =3, E =1, DATAPACKING = POINT, ZONETYPE = FETRIANGLE
-1.91227  2.31154  0
-2.18691  2.05364  0
2  3  15
1  2  3
VARIABLES = X Y Z
ZONE N =3, E =1, DATAPACKING = POINT, ZONETYPE = FETRIANGLE
-2.18691  2.05364  0
-2.42705  1.76336  0
2  3  15
3  1  2
VARIABLES = X Y Z
ZONE N =3, E =1, DATAPACKING = POINT, ZONETYPE = FETRIANGLE
-2.42705  1.76336  0
-2.62892  1.44526  0
2  3  15
3  1  2
VARIABLES = X Y Z
ZONE N =3, E =1, DATAPACKING = POINT, ZONETYPE = FETRIANGLE
-2.62892  1.44526  0
-2.78933  1.10437  0
2  3  15
3  1  2
VARIABLES = X Y Z
ZONE N =3, E =1, DATAPACKING = POINT, ZONETYPE = FETRIANGLE
-2.78933  1.10437  0
-2.90575  0.74607  0
2  3  15
3  1  2
VARIABLES = X Y Z
ZONE N =3, E =1, DATAPACKING = POINT, ZONETYPE = FETRIANGLE
-2.90575  0.74607  0
-2.97634  0.376  0
2  3  15
2  3  1
VARIABLES = X Y Z
ZONE N =3, E =1, DATAPACKING = POINT, ZONETYPE = FETRIANGLE
-2.97634  0.376  0
-3  -9.64874e-16  0
2  3  15
2  3  1
VARIABLES = X Y Z
ZONE N =3, E =1, DATAPACKING = POINT, ZONETYPE = FETRIANGLE
-3  -9.64874e-16  0
-2.97634  -0.376  0
2  3  15
2  3  1
VARIABLES = X Y Z
ZONE N =3, E =1, DATAPACKING = POINT, ZONETYPE = FETRIANGLE
-2.97634  -0.376  0
-2.90575  -0.74607  0
2  3  15
2  3  1
VARIABLES = X Y Z
ZONE N =3, E =1, DATAPACKING = POINT, ZONETYPE = FETRIANGLE
-2.90575  -0.74607  0
-2.78933  -1.10437  0
2  3  15
2  3  1
VARIABLES = X Y Z
ZONE N =3, E =1, DATAPACKING = POINT, ZONETYPE = FETRIANGLE
-2.78933  -1.10437  0
-2.62892  -1.44526  0
2  3  15
3  1  2
VARIABLES = X Y Z
ZONE N =3, E =1, DATAPACKING = POINT, ZONETYPE = FETRIANGLE
-2.62892  -1.44526  0
-2.42705  -1.76336  0
2  3  15
3  1  2
VARIABLES = X Y Z
ZONE N =3, E =1, DATAPACKING = POINT, ZONETYPE = FETRIANGLE
-2.42705  -1.76336  0
-2.18691  -2.05364  0
2  3  15
3  1  2
VARIABLES = X Y Z
ZONE N =3, E =1, DATAPACKING = POINT, ZONETYPE = FETRIANGLE
-2.18691  -2.05364  0
-1.91227  -2.31154  0
2  3  15
1  2  3
VARIABLES = X Y Z
ZONE N =3, E =1, DATAPACKING = POINT, ZONETYPE = FETRIANGLE
-1.91227  -2.31154  0
-1.60748  -2.53298  0
2  3  15
1  2  3
VARIABLES = X Y Z
ZONE N =3, E =1, DATAPACKING = POINT, ZONETYPE = FETRIANGLE
-1.60748  -2.53298  0
-1.27734  -2.71448  0
2  3  15
1  2  3
VARIABLES = X Y Z
ZONE N =3, E =1, DATAPACKING = POINT, ZONETYPE = FETRIANGLE
-1.27734  -2.71448  0
-0.927051  -2.85317  0
2  3  15
2  3  1
VARIABLES = X Y Z
ZONE N =3, E =1, DATAPACKING = POINT, ZONETYPE = FETRIANGLE
-0.927051  -2.85317  0
-0.562144  -2.94686  0
2  3  15
2  3  1
VARIABLES = X Y Z
ZONE N =3, E =1, DATAPACKING = POINT, ZONETYPE = FETRIANGLE
-0.562144  -2.94686  0
-0.188372  -2.99408  0
2  3  15
2  3  1
VARIABLES = X Y Z
ZONE N =3, E =1, DATAPACKING = POINT, ZONETYPE = FETRIANGLE
-0.188372  -2.99408  0
0.188372  -2.99408  0
2  3  15
2  3  1
VARIABLES = X Y Z
ZONE N =3, E =1, DATAPACKING = POINT, ZONETYPE = FETRIANGLE
0.188372  -2.99408  0
0.562144  -2.94686  0
2  3  15
2  3  1
VARIABLES = X Y Z
ZONE N =3, E =1, DATAPACKING = POINT, ZONETYPE = FETRIANGLE
0.562144  -2.94686  0
0.927051  -2.85317  0
2  3  15
2  3  1
VARIABLES = X Y Z
ZONE N =3, E =1, DATAPACKING = POINT, ZONETYPE = FETRIANGLE
0.927051  -2.85317  0
1.27734  -2.71448  0
2  3  15
1  2  3
VARIABLES = X Y Z
ZONE N =3, E =1, DATAPACKING = POINT, ZONETYPE = FETRIANGLE
1.27734  -2.71448  0
1.60748  -2.53298  0
2  3  15
1  2  3
VARIABLES = X Y Z
ZONE N =3, E =1, DATAPACKING = POINT, ZONETYPE = FETRIANGLE
1.60748  -2.53298  0
1.91227  -2.31154  0
2  3  15
1  2  3
VARIABLES = X Y Z
ZONE N =3, E =1, DATAPACKING = POINT, ZONETYPE = FETRIANGLE
1.91227  -2.31154  0
2.18691  -2.05364  0
2  3  15
1  2  3
VARIABLES = X Y Z
ZONE N =3, E =1, DATAPACKING = POINT, ZONETYPE = FETRIANGLE
2.18691  -2.05364  0
2.42705  -1.76336  0
2  3  15
3  1  2
VARIABLES = X Y Z
ZONE N =3, E =1, DATAPACKING = POINT, ZONETYPE = FETRIANGLE
2.42705  -1.76336  0
2.62892  -1.44526  0
2  3  15
3  1  2
VARIABLES = X Y Z
ZONE N =3, E =1, DATAPACKING = POINT, ZONETYPE = FETRIANGLE
2.62892  -1.44526  0
2.78933  -1.10437  0
2  3  15
3  1  2
VARIABLES = X Y Z
ZONE N =3, E =1, DATAPACKING = POINT, ZONETYPE = FETRIANGLE
2.78933  -1.10437  0
2.90575  -0.74607  0
2  3  15
3  1  2
VARIABLES = X Y Z
ZONE N =3, E =1, DATAPACKING = POINT, ZONETYPE = FETRIANGLE
2.90575  -0.74607  0
2.97634  -0.376  0
2  3  15
3  1  2
VARIABLES = X Y Z
ZONE N =3, E =1, DATAPACKING = POINT, ZONETYPE = FETRIANGLE
2.97634  -0.376  0
3  0  0
2  3  15
3  1  2
VARIABLES = X Y Z
ZONE N =50, E =48, DATAPACKING = POINT, ZONETYPE = FETRIANGLE
3  0  0
2.97634  0.376  0
2.90575  0.74607  0
2.78933  1.10437  0
2.62892  1.44526  0
2.42705  1.76336  0
2.18691  2.05364  0
1.91227  2.31154  0
1.60748  2.53298  0
1.27734  2.71448  0
0.927051  2.85317  0
0.562144  2.94686  0
0.188372  2.99408  0
-0.188372  2.99408  0
-0.562144  2.94686  0
-0.927051  2.85317  0
-1.27734  2.71448  0
-1.60748  2.53298  0
-1.91227  2.31154  0
-2.18691  2.05364  0
-2.42705  1.76336  0
-2.62892  1.44526  0
-2.78933  1.10437  0
-2.90575  0.74607  0
-2.97634  0.376  0
-3  -9.64874e-16  0
-2.97634  -0.376  0
-2.90575  -0.74607  0
-2.78933  -1.10437  0
-2.62892  -1.44526  0
-2.42705  -1.76336  0
-2.18691  -2.05364  0
-1.91227  -2.31154  0
-1.60748  -2.53298  0
-1.27734  -2.71448  0
-0.927051  -2.85317  0
-0.562144  -2.94686  0
-0.188372  -2.99408  0
0.188372  -2.99408  0
0.562144  -2.94686  0
0.927051  -2.85317  0
1.27734  -2.71448  0
1.60748  -2.53298  0
1.91227  -2.31154  0
2.18691  -2.05364  0
2.42705  -1.76336  0
2.62892  -1.44526  0
2.78933  -1.10437  0
2.90575  -0.74607  0
2.97634  -0.376  0
35  33  34
29  30  31
40  38  39
42  40  41
43  40  42
21  22  23
21  23  24
21  24  25
21  25  26
44  36  37
44  37  38
44  38  40
44  40  43
46  44  45
46  36  44
17  18  19
17  19  20
17  20  21
48  46  47
49  46  48
50  46  49
13  14  15
2  50  1
12  13  15
11  15  16
11  16  17
11  12  15
11  26  27
11  27  28
11  28  29
11  31  32
11  32  33
11  35  36
11  33  35
11  29  31
11  17  21
11  21  26
6  3  4
6  4  5
8  9  10
7  50  2
7  2  3
7  10  11
7  46  50
7  11  36
7  3  6
7  8  10
7  36  46
