VARIABLES = X Y Z
ZONE N =54, E =52, DATAPACKING = POINT, ZONETYPE = FETRIANGLE
2  2  -7.11903e-16
1.94188  2  0.478631
1.77091  2  0.929446
1.49702  2  1.32625
1.13613  2  1.64597
0.70921  2  1.87003
0.241073  2  1.98542
-0.241073  2  1.98542
-0.70921  2  1.87003
-1.13613  2  1.64597
-1.49702  2  1.32625
-1.77091  2  0.929446
-1.94188  2  0.478631
-2  2  1.79924e-15
-1.94188  2  -0.478631
-1.77091  2  -0.929446
-1.49702  2  -1.32625
-1.13613  2  -1.64597
-0.70921  2  -1.87003
-0.241073  2  -1.98542
0.241073  2  -1.98542
0.70921  2  -1.87003
1.13613  2  -1.64597
1.49702  2  -1.32625
1.77091  2  -0.929446
1.94188  2  -0.478631
2  2  -7.11903e-16
1  1  -3.55952e-16
0.970942  1  0.239316
0.885456  1  0.464723
0.748511  1  0.663123
0.568065  1  0.822984
0.354605  1  0.935016
0.120537  1  0.992709
-0.120537  1  0.992709
-0.354605  1  0.935016
-0.568065  1  0.822984
-0.748511  1  0.663123
-0.885456  1  0.464723
-0.970942  1  0.239316
-1  1  8.99621e-16
-0.970942  1  -0.239316
-0.885456  1  -0.464723
-0.748511  1  -0.663123
-0.568065  1  -0.822984
-0.354605  1  -0.935016
-0.120537  1  -0.992709
0.120537  1  -0.992709
0.354605  1  -0.935016
0.568065  1  -0.822984
0.748511  1  -0.663123
0.885456  1  -0.464723
0.970942  1  -0.239316
1  1  -3.55952e-16
2  1  28
2  28  29
3  29  30
3  2  29
4  30  31
4  3  30
5  31  32
5  4  31
6  32  33
6  5  32
7  33  34
7  6  33
8  34  35
8  7  34
9  35  36
9  8  35
10  36  37
10  37  38
10  9  36
11  10  38
12  11  38
12  38  39
13  12  39
13  39  40
14  13  40
14  40  41
15  14  41
15  41  42
16  15  42
16  42  43
17  16  43
17  43  44
17  44  45
18  17  45
19  18  45
19  45  46
19  46  47
20  19  47
21  20  47
21  47  48
22  21  48
22  48  49
22  49  50
23  22  50
24  50  51
24  23  50
25  51  52
25  24  51
26  52  53
26  53  54
26  25  52
27  26  54
VARIABLES = X Y Z
ZONE N =26, E =24, DATAPACKING = POINT, ZONETYPE = FETRIANGLE
2  2  -7.11903e-16
1.94188  2  0.478631
1.77091  2  0.929446
1.49702  2  1.32625
1.13613  2  1.64597
0.70921  2  1.87003
0.241073  2  1.98542
-0.241073  2  1.98542
-0.70921  2  1.87003
-1.13613  2  1.64597
-1.49702  2  1.32625
-1.77091  2  0.929446
-1.94188  2  0.478631
-2  2  1.79924e-15
-1.94188  2  -0.478631
-1.77091  2  -0.929446
-1.49702  2  -1.32625
-1.13613  2  -1.64597
-0.70921  2  -1.87003
-0.241073  2  -1.98542
0.241073  2  -1.98542
0.70921  2  -1.87003
1.13613  2  -1.64597
1.49702  2  -1.32625
1.77091  2  -0.929446
1.94188  2  -0.478631
11  12  13
24  17  18
24  18  19
24  19  20
24  20  21
24  21  22
24  22  23
26  16  17
26  24  25
26  17  24
7  8  9
3  1  2
3  13  14
3  14  15
3  15  16
3  26  1
3  11  13
3  16  26
5  6  7
4  9  10
4  10  11
4  7  9
4  11  3
4  5  7
VARIABLES = X Y Z
ZONE N =26, E =24, DATAPACKING = POINT, ZONETYPE = FETRIANGLE
1  1  -3.55952e-16
0.970942  1  0.239316
0.885456  1  0.464723
0.748511  1  0.663123
0.568065  1  0.822984
0.354605  1  0.935016
0.120537  1  0.992709
-0.120537  1  0.992709
-0.354605  1  0.935016
-0.568065  1  0.822984
-0.748511  1  0.663123
-0.885456  1  0.464723
-0.970942  1  0.239316
-1  1  8.99621e-16
-0.970942  1  -0.239316
-0.885456  1  -0.464723
-0.748511  1  -0.663123
-0.568065  1  -0.822984
-0.354605  1  -0.935016
-0.120537  1  -0.992709
0.120537  1  -0.992709
0.354605  1  -0.935016
0.568065  1  -0.822984
0.748511  1  -0.663123
0.885456  1  -0.464723
0.970942  1  -0.239316
11  12  13
24  21  22
24  22  23
26  24  25
3  1  2
3  16  17
3  17  18
3  18  19
3  19  20
3  20  21
3  26  1
3  21  24
3  24  26
5  6  7
4  7  8
4  8  9
4  9  10
4  10  11
4  13  14
4  14  15
4  15  16
4  11  13
4  16  3
4  5  7
