VARIABLES = X Y Z
Zone  I = 101 ,J = 101 , Datapacking = Point
1  1  0
1.01  1.01  0.02
1.02  1.02  0.04
1.03  1.03  0.06
1.04  1.04  0.08
1.05  1.05  0.1
1.06  1.06  0.12
1.07  1.07  0.14
1.08  1.08  0.16
1.09  1.09  0.18
1.1  1.1  0.2
1.11  1.11  0.22
1.12  1.12  0.24
1.13  1.13  0.26
1.14  1.14  0.28
1.15  1.15  0.3
1.16  1.16  0.32
1.17  1.17  0.34
1.18  1.18  0.36
1.19  1.19  0.38
1.2  1.2  0.4
1.21  1.21  0.42
1.22  1.22  0.44
1.23  1.23  0.46
1.24  1.24  0.48
1.25  1.25  0.5
1.26  1.26  0.52
1.27  1.27  0.54
1.28  1.28  0.56
1.29  1.29  0.58
1.3  1.3  0.6
1.31  1.31  0.62
1.32  1.32  0.64
1.33  1.33  0.66
1.34  1.34  0.68
1.35  1.35  0.7
1.36  1.36  0.72
1.37  1.37  0.74
1.38  1.38  0.76
1.39  1.39  0.78
1.4  1.4  0.8
1.41  1.41  0.82
1.42  1.42  0.84
1.43  1.43  0.86
1.44  1.44  0.88
1.45  1.45  0.9
1.46  1.46  0.92
1.47  1.47  0.94
1.48  1.48  0.96
1.49  1.49  0.98
1.5  1.5  1
1.51  1.51  1.02
1.52  1.52  1.04
1.53  1.53  1.06
1.54  1.54  1.08
1.55  1.55  1.1
1.56  1.56  1.12
1.57  1.57  1.14
1.58  1.58  1.16
1.59  1.59  1.18
1.6  1.6  1.2
1.61  1.61  1.22
1.62  1.62  1.24
1.63  1.63  1.26
1.64  1.64  1.28
1.65  1.65  1.3
1.66  1.66  1.32
1.67  1.67  1.34
1.68  1.68  1.36
1.69  1.69  1.38
1.7  1.7  1.4
1.71  1.71  1.42
1.72  1.72  1.44
1.73  1.73  1.46
1.74  1.74  1.48
1.75  1.75  1.5
1.76  1.76  1.52
1.77  1.77  1.54
1.78  1.78  1.56
1.79  1.79  1.58
1.8  1.8  1.6
1.81  1.81  1.62
1.82  1.82  1.64
1.83  1.83  1.66
1.84  1.84  1.68
1.85  1.85  1.7
1.86  1.86  1.72
1.87  1.87  1.74
1.88  1.88  1.76
1.89  1.89  1.78
1.9  1.9  1.8
1.91  1.91  1.82
1.92  1.92  1.84
1.93  1.93  1.86
1.94  1.94  1.88
1.95  1.95  1.9
1.96  1.96  1.92
1.97  1.97  1.94
1.98  1.98  1.96
1.99  1.99  1.98
2  2  2
0.99861  1  0.0527161
1.00754  1.01  0.0732155
1.01647  1.02  0.0937148
1.0254  1.03  0.114214
1.03434  1.04  0.134714
1.04327  1.05  0.155213
1.0522  1.06  0.175712
1.06113  1.07  0.196212
1.07006  1.08  0.216711
1.079  1.09  0.23721
1.08793  1.1  0.25771
1.09686  1.11  0.278209
1.10579  1.12  0.298708
1.11472  1.13  0.319208
1.12365  1.14  0.339707
1.13259  1.15  0.360206
1.14152  1.16  0.380706
1.15045  1.17  0.401205
1.15938  1.18  0.421704
1.16831  1.19  0.442204
1.17724  1.2  0.462703
1.18618  1.21  0.483203
1.19511  1.22  0.503702
1.20404  1.23  0.524201
1.21297  1.24  0.544701
1.2219  1.25  0.5652
1.23084  1.26  0.585699
1.23977  1.27  0.606199
1.2487  1.28  0.626698
1.25763  1.29  0.647197
1.26656  1.3  0.667697
1.27549  1.31  0.688196
1.28443  1.32  0.708695
1.29336  1.33  0.729195
1.30229  1.34  0.749694
1.31122  1.35  0.770193
1.32015  1.36  0.790693
1.32909  1.37  0.811192
1.33802  1.38  0.831692
1.34695  1.39  0.852191
1.35588  1.4  0.87269
1.36481  1.41  0.89319
1.37374  1.42  0.913689
1.38268  1.43  0.934188
1.39161  1.44  0.954688
1.40054  1.45  0.975187
1.40947  1.46  0.995686
1.4184  1.47  1.01619
1.42733  1.48  1.03669
1.43627  1.49  1.05718
1.4452  1.5  1.07768
1.45413  1.51  1.09818
1.46306  1.52  1.11868
1.47199  1.53  1.13918
1.48093  1.54  1.15968
1.48986  1.55  1.18018
1.49879  1.56  1.20068
1.50772  1.57  1.22118
1.51665  1.58  1.24168
1.52558  1.59  1.26218
1.53452  1.6  1.28268
1.54345  1.61  1.30318
1.55238  1.62  1.32368
1.56131  1.63  1.34418
1.57024  1.64  1.36467
1.57917  1.65  1.38517
1.58811  1.66  1.40567
1.59704  1.67  1.42617
1.60597  1.68  1.44667
1.6149  1.69  1.46717
1.62383  1.7  1.48767
1.63277  1.71  1.50817
1.6417  1.72  1.52867
1.65063  1.73  1.54917
1.65956  1.74  1.56967
1.66849  1.75  1.59017
1.67742  1.76  1.61067
1.68636  1.77  1.63117
1.69529  1.78  1.65167
1.70422  1.79  1.67216
1.71315  1.8  1.69266
1.72208  1.81  1.71316
1.73101  1.82  1.73366
1.73995  1.83  1.75416
1.74888  1.84  1.77466
1.75781  1.85  1.79516
1.76674  1.86  1.81566
1.77567  1.87  1.83616
1.78461  1.88  1.85666
1.79354  1.89  1.87716
1.80247  1.9  1.89766
1.8114  1.91  1.91816
1.82033  1.92  1.93866
1.82926  1.93  1.95916
1.8382  1.94  1.97966
1.84713  1.95  2.00015
1.85606  1.96  2.02065
1.86499  1.97  2.04115
1.87392  1.98  2.06165
1.88286  1.99  2.08215
1.89179  2  2.10265
0.994277  1  0.106831
1.00208  1.01  0.127784
1.00989  1.02  0.148738
1.0177  1.03  0.169692
1.0255  1.04  0.190646
1.03331  1.05  0.2116
1.04111  1.06  0.232554
1.04892  1.07  0.253508
1.05673  1.08  0.274461
1.06453  1.09  0.295415
1.07234  1.1  0.316369
1.08014  1.11  0.337323
1.08795  1.12  0.358277
1.09576  1.13  0.379231
1.10356  1.14  0.400185
1.11137  1.15  0.421138
1.11918  1.16  0.442092
1.12698  1.17  0.463046
1.13479  1.18  0.484
1.14259  1.19  0.504954
1.1504  1.2  0.525908
1.15821  1.21  0.546861
1.16601  1.22  0.567815
1.17382  1.23  0.588769
1.18163  1.24  0.609723
1.18943  1.25  0.630677
1.19724  1.26  0.651631
1.20504  1.27  0.672585
1.21285  1.28  0.693538
1.22066  1.29  0.714492
1.22846  1.3  0.735446
1.23627  1.31  0.7564
1.24407  1.32  0.777354
1.25188  1.33  0.798308
1.25969  1.34  0.819262
1.26749  1.35  0.840215
1.2753  1.36  0.861169
1.28311  1.37  0.882123
1.29091  1.38  0.903077
1.29872  1.39  0.924031
1.30652  1.4  0.944985
1.31433  1.41  0.965938
1.32214  1.42  0.986892
1.32994  1.43  1.00785
1.33775  1.44  1.0288
1.34555  1.45  1.04975
1.35336  1.46  1.07071
1.36117  1.47  1.09166
1.36897  1.48  1.11262
1.37678  1.49  1.13357
1.38459  1.5  1.15452
1.39239  1.51  1.17548
1.4002  1.52  1.19643
1.408  1.53  1.21738
1.41581  1.54  1.23834
1.42362  1.55  1.25929
1.43142  1.56  1.28025
1.43923  1.57  1.3012
1.44703  1.58  1.32215
1.45484  1.59  1.34311
1.46265  1.6  1.36406
1.47045  1.61  1.38502
1.47826  1.62  1.40597
1.48607  1.63  1.42692
1.49387  1.64  1.44788
1.50168  1.65  1.46883
1.50948  1.66  1.48978
1.51729  1.67  1.51074
1.5251  1.68  1.53169
1.5329  1.69  1.55265
1.54071  1.7  1.5736
1.54851  1.71  1.59455
1.55632  1.72  1.61551
1.56413  1.73  1.63646
1.57193  1.74  1.65742
1.57974  1.75  1.67837
1.58755  1.76  1.69932
1.59535  1.77  1.72028
1.60316  1.78  1.74123
1.61096  1.79  1.76218
1.61877  1.8  1.78314
1.62658  1.81  1.80409
1.63438  1.82  1.82505
1.64219  1.83  1.846
1.64999  1.84  1.86695
1.6578  1.85  1.88791
1.66561  1.86  1.90886
1.67341  1.87  1.92982
1.68122  1.88  1.95077
1.68903  1.89  1.97172
1.69683  1.9  1.99268
1.70464  1.91  2.01363
1.71244  1.92  2.03458
1.72025  1.93  2.05554
1.72806  1.94  2.07649
1.73586  1.95  2.09745
1.74367  1.96  2.1184
1.75147  1.97  2.13935
1.75928  1.98  2.16031
1.76709  1.99  2.18126
1.77489  2  2.20222
0.986766  1  0.16215
0.993391  1.01  0.183507
1.00002  1.02  0.204863
1.00664  1.03  0.22622
1.01326  1.04  0.247577
1.01989  1.05  0.268934
1.02651  1.06  0.290291
1.03314  1.07  0.311648
1.03976  1.08  0.333004
1.04639  1.09  0.354361
1.05301  1.1  0.375718
1.05964  1.11  0.397075
1.06626  1.12  0.418432
1.07289  1.13  0.439789
1.07951  1.14  0.461145
1.08614  1.15  0.482502
1.09276  1.16  0.503859
1.09939  1.17  0.525216
1.10601  1.18  0.546573
1.11263  1.19  0.567929
1.11926  1.2  0.589286
1.12588  1.21  0.610643
1.13251  1.22  0.632
1.13913  1.23  0.653357
1.14576  1.24  0.674714
1.15238  1.25  0.69607
1.15901  1.26  0.717427
1.16563  1.27  0.738784
1.17226  1.28  0.760141
1.17888  1.29  0.781498
1.18551  1.3  0.802854
1.19213  1.31  0.824211
1.19876  1.32  0.845568
1.20538  1.33  0.866925
1.212  1.34  0.888282
1.21863  1.35  0.909639
1.22525  1.36  0.930995
1.23188  1.37  0.952352
1.2385  1.38  0.973709
1.24513  1.39  0.995066
1.25175  1.4  1.01642
1.25838  1.41  1.03778
1.265  1.42  1.05914
1.27163  1.43  1.08049
1.27825  1.44  1.10185
1.28488  1.45  1.12321
1.2915  1.46  1.14456
1.29813  1.47  1.16592
1.30475  1.48  1.18728
1.31137  1.49  1.20863
1.318  1.5  1.22999
1.32462  1.51  1.25135
1.33125  1.52  1.2727
1.33787  1.53  1.29406
1.3445  1.54  1.31542
1.35112  1.55  1.33678
1.35775  1.56  1.35813
1.36437  1.57  1.37949
1.371  1.58  1.40085
1.37762  1.59  1.4222
1.38425  1.6  1.44356
1.39087  1.61  1.46492
1.3975  1.62  1.48627
1.40412  1.63  1.50763
1.41074  1.64  1.52899
1.41737  1.65  1.55034
1.42399  1.66  1.5717
1.43062  1.67  1.59306
1.43724  1.68  1.61441
1.44387  1.69  1.63577
1.45049  1.7  1.65713
1.45712  1.71  1.67848
1.46374  1.72  1.69984
1.47037  1.73  1.7212
1.47699  1.74  1.74255
1.48362  1.75  1.76391
1.49024  1.76  1.78527
1.49687  1.77  1.80663
1.50349  1.78  1.82798
1.51011  1.79  1.84934
1.51674  1.8  1.8707
1.52336  1.81  1.89205
1.52999  1.82  1.91341
1.53661  1.83  1.93477
1.54324  1.84  1.95612
1.54986  1.85  1.97748
1.55649  1.86  1.99884
1.56311  1.87  2.02019
1.56974  1.88  2.04155
1.57636  1.89  2.06291
1.58299  1.9  2.08426
1.58961  1.91  2.10562
1.59624  1.92  2.12698
1.60286  1.93  2.14833
1.60948  1.94  2.16969
1.61611  1.95  2.19105
1.62273  1.96  2.2124
1.62936  1.97  2.23376
1.63598  1.98  2.25512
1.64261  1.99  2.27648
1.64923  2  2.29783
0.97585  1  0.218443
0.981239  1.01  0.240144
0.986629  1.02  0.261846
0.992019  1.03  0.283547
0.997408  1.04  0.305249
1.0028  1.05  0.32695
1.00819  1.06  0.348651
1.01358  1.07  0.370353
1.01897  1.08  0.392054
1.02436  1.09  0.413756
1.02975  1.1  0.435457
1.03514  1.11  0.457159
1.04053  1.12  0.47886
1.04592  1.13  0.500561
1.0513  1.14  0.522263
1.05669  1.15  0.543964
1.06208  1.16  0.565666
1.06747  1.17  0.587367
1.07286  1.18  0.609069
1.07825  1.19  0.63077
1.08364  1.2  0.652471
1.08903  1.21  0.674173
1.09442  1.22  0.695874
1.09981  1.23  0.717576
1.1052  1.24  0.739277
1.11059  1.25  0.760978
1.11598  1.26  0.78268
1.12137  1.27  0.804381
1.12676  1.28  0.826083
1.13215  1.29  0.847784
1.13754  1.3  0.869486
1.14293  1.31  0.891187
1.14832  1.32  0.912888
1.15371  1.33  0.93459
1.1591  1.34  0.956291
1.16449  1.35  0.977993
1.16988  1.36  0.999694
1.17527  1.37  1.0214
1.18066  1.38  1.0431
1.18605  1.39  1.0648
1.19144  1.4  1.0865
1.19682  1.41  1.1082
1.20221  1.42  1.1299
1.2076  1.43  1.1516
1.21299  1.44  1.17331
1.21838  1.45  1.19501
1.22377  1.46  1.21671
1.22916  1.47  1.23841
1.23455  1.48  1.26011
1.23994  1.49  1.28181
1.24533  1.5  1.30351
1.25072  1.51  1.32522
1.25611  1.52  1.34692
1.2615  1.53  1.36862
1.26689  1.54  1.39032
1.27228  1.55  1.41202
1.27767  1.56  1.43372
1.28306  1.57  1.45542
1.28845  1.58  1.47713
1.29384  1.59  1.49883
1.29923  1.6  1.52053
1.30462  1.61  1.54223
1.31001  1.62  1.56393
1.3154  1.63  1.58563
1.32079  1.64  1.60733
1.32618  1.65  1.62904
1.33157  1.66  1.65074
1.33696  1.67  1.67244
1.34235  1.68  1.69414
1.34773  1.69  1.71584
1.35312  1.7  1.73754
1.35851  1.71  1.75924
1.3639  1.72  1.78095
1.36929  1.73  1.80265
1.37468  1.74  1.82435
1.38007  1.75  1.84605
1.38546  1.76  1.86775
1.39085  1.77  1.88945
1.39624  1.78  1.91115
1.40163  1.79  1.93286
1.40702  1.8  1.95456
1.41241  1.81  1.97626
1.4178  1.82  1.99796
1.42319  1.83  2.01966
1.42858  1.84  2.04136
1.43397  1.85  2.06306
1.43936  1.86  2.08477
1.44475  1.87  2.10647
1.45014  1.88  2.12817
1.45553  1.89  2.14987
1.46092  1.9  2.17157
1.46631  1.91  2.19327
1.4717  1.92  2.21497
1.47709  1.93  2.23668
1.48248  1.94  2.25838
1.48787  1.95  2.28008
1.49326  1.96  2.30178
1.49864  1.97  2.32348
1.50403  1.98  2.34518
1.50942  1.99  2.36688
1.51481  2  2.38859
0.961318  1  0.275441
0.965422  1.01  0.297422
0.969527  1.02  0.319402
0.973631  1.03  0.341383
0.977736  1.04  0.363364
0.98184  1.05  0.385345
0.985944  1.06  0.407325
0.990049  1.07  0.429306
0.994153  1.08  0.451287
0.998257  1.09  0.473268
1.00236  1.1  0.495248
1.00647  1.11  0.517229
1.01057  1.12  0.53921
1.01467  1.13  0.561191
1.01878  1.14  0.583172
1.02288  1.15  0.605152
1.02699  1.16  0.627133
1.03109  1.17  0.649114
1.0352  1.18  0.671095
1.0393  1.19  0.693075
1.04341  1.2  0.715056
1.04751  1.21  0.737037
1.05161  1.22  0.759018
1.05572  1.23  0.780998
1.05982  1.24  0.802979
1.06393  1.25  0.82496
1.06803  1.26  0.846941
1.07214  1.27  0.868921
1.07624  1.28  0.890902
1.08034  1.29  0.912883
1.08445  1.3  0.934864
1.08855  1.31  0.956845
1.09266  1.32  0.978825
1.09676  1.33  1.00081
1.10087  1.34  1.02279
1.10497  1.35  1.04477
1.10908  1.36  1.06675
1.11318  1.37  1.08873
1.11728  1.38  1.11071
1.12139  1.39  1.13269
1.12549  1.4  1.15467
1.1296  1.41  1.17665
1.1337  1.42  1.19863
1.13781  1.43  1.22061
1.14191  1.44  1.24259
1.14601  1.45  1.26458
1.15012  1.46  1.28656
1.15422  1.47  1.30854
1.15833  1.48  1.33052
1.16243  1.49  1.3525
1.16654  1.5  1.37448
1.17064  1.51  1.39646
1.17475  1.52  1.41844
1.17885  1.53  1.44042
1.18295  1.54  1.4624
1.18706  1.55  1.48438
1.19116  1.56  1.50636
1.19527  1.57  1.52834
1.19937  1.58  1.55033
1.20348  1.59  1.57231
1.20758  1.6  1.59429
1.21168  1.61  1.61627
1.21579  1.62  1.63825
1.21989  1.63  1.66023
1.224  1.64  1.68221
1.2281  1.65  1.70419
1.23221  1.66  1.72617
1.23631  1.67  1.74815
1.24041  1.68  1.77013
1.24452  1.69  1.79211
1.24862  1.7  1.81409
1.25273  1.71  1.83608
1.25683  1.72  1.85806
1.26094  1.73  1.88004
1.26504  1.74  1.90202
1.26915  1.75  1.924
1.27325  1.76  1.94598
1.27735  1.77  1.96796
1.28146  1.78  1.98994
1.28556  1.79  2.01192
1.28967  1.8  2.0339
1.29377  1.81  2.05588
1.29788  1.82  2.07786
1.30198  1.83  2.09984
1.30608  1.84  2.12183
1.31019  1.85  2.14381
1.31429  1.86  2.16579
1.3184  1.87  2.18777
1.3225  1.88  2.20975
1.32661  1.89  2.23173
1.33071  1.9  2.25371
1.33482  1.91  2.27569
1.33892  1.92  2.29767
1.34302  1.93  2.31965
1.34713  1.94  2.34163
1.35123  1.95  2.36361
1.35534  1.96  2.38559
1.35944  1.97  2.40758
1.36355  1.98  2.42956
1.36765  1.99  2.45154
1.37175  2  2.47352
0.942985  1  0.332837
0.945758  1.01  0.355025
0.948531  1.02  0.377213
0.951304  1.03  0.399401
0.954077  1.04  0.421589
0.95685  1.05  0.443777
0.959623  1.06  0.465965
0.962396  1.07  0.488153
0.965169  1.08  0.510341
0.967943  1.09  0.532529
0.970716  1.1  0.554717
0.973489  1.11  0.576905
0.976262  1.12  0.599093
0.979035  1.13  0.621281
0.981808  1.14  0.643469
0.984581  1.15  0.665657
0.987354  1.16  0.687846
0.990127  1.17  0.710034
0.992901  1.18  0.732222
0.995674  1.19  0.75441
0.998447  1.2  0.776598
1.00122  1.21  0.798786
1.00399  1.22  0.820974
1.00677  1.23  0.843162
1.00954  1.24  0.86535
1.01231  1.25  0.887538
1.01509  1.26  0.909726
1.01786  1.27  0.931914
1.02063  1.28  0.954102
1.0234  1.29  0.97629
1.02618  1.3  0.998478
1.02895  1.31  1.02067
1.03172  1.32  1.04285
1.0345  1.33  1.06504
1.03727  1.34  1.08723
1.04004  1.35  1.10942
1.04282  1.36  1.13161
1.04559  1.37  1.15379
1.04836  1.38  1.17598
1.05114  1.39  1.19817
1.05391  1.4  1.22036
1.05668  1.41  1.24255
1.05946  1.42  1.26473
1.06223  1.43  1.28692
1.065  1.44  1.30911
1.06777  1.45  1.3313
1.07055  1.46  1.35349
1.07332  1.47  1.37568
1.07609  1.48  1.39786
1.07887  1.49  1.42005
1.08164  1.5  1.44224
1.08441  1.51  1.46443
1.08719  1.52  1.48662
1.08996  1.53  1.5088
1.09273  1.54  1.53099
1.09551  1.55  1.55318
1.09828  1.56  1.57537
1.10105  1.57  1.59756
1.10383  1.58  1.61974
1.1066  1.59  1.64193
1.10937  1.6  1.66412
1.11214  1.61  1.68631
1.11492  1.62  1.7085
1.11769  1.63  1.73068
1.12046  1.64  1.75287
1.12324  1.65  1.77506
1.12601  1.66  1.79725
1.12878  1.67  1.81944
1.13156  1.68  1.84162
1.13433  1.69  1.86381
1.1371  1.7  1.886
1.13988  1.71  1.90819
1.14265  1.72  1.93038
1.14542  1.73  1.95256
1.14819  1.74  1.97475
1.15097  1.75  1.99694
1.15374  1.76  2.01913
1.15651  1.77  2.04132
1.15929  1.78  2.0635
1.16206  1.79  2.08569
1.16483  1.8  2.10788
1.16761  1.81  2.13007
1.17038  1.82  2.15226
1.17315  1.83  2.17445
1.17593  1.84  2.19663
1.1787  1.85  2.21882
1.18147  1.86  2.24101
1.18425  1.87  2.2632
1.18702  1.88  2.28539
1.18979  1.89  2.30757
1.19256  1.9  2.32976
1.19534  1.91  2.35195
1.19811  1.92  2.37414
1.20088  1.93  2.39633
1.20366  1.94  2.41851
1.20643  1.95  2.4407
1.2092  1.96  2.46289
1.21198  1.97  2.48508
1.21475  1.98  2.50727
1.21752  1.99  2.52945
1.2203  2  2.55164
0.920693  1  0.390288
0.922094  1.01  0.412604
0.923495  1.02  0.434921
0.924896  1.03  0.457238
0.926298  1.04  0.479555
0.927699  1.05  0.501871
0.9291  1.06  0.524188
0.930501  1.07  0.546505
0.931902  1.08  0.568822
0.933304  1.09  0.591138
0.934705  1.1  0.613455
0.936106  1.11  0.635772
0.937507  1.12  0.658089
0.938908  1.13  0.680405
0.940309  1.14  0.702722
0.941711  1.15  0.725039
0.943112  1.16  0.747355
0.944513  1.17  0.769672
0.945914  1.18  0.791989
0.947315  1.19  0.814306
0.948716  1.2  0.836622
0.950118  1.21  0.858939
0.951519  1.22  0.881256
0.95292  1.23  0.903573
0.954321  1.24  0.925889
0.955722  1.25  0.948206
0.957124  1.26  0.970523
0.958525  1.27  0.99284
0.959926  1.28  1.01516
0.961327  1.29  1.03747
0.962728  1.3  1.05979
0.964129  1.31  1.08211
0.965531  1.32  1.10442
0.966932  1.33  1.12674
0.968333  1.34  1.14906
0.969734  1.35  1.17137
0.971135  1.36  1.19369
0.972536  1.37  1.21601
0.973938  1.38  1.23832
0.975339  1.39  1.26064
0.97674  1.4  1.28296
0.978141  1.41  1.30527
0.979542  1.42  1.32759
0.980944  1.43  1.34991
0.982345  1.44  1.37222
0.983746  1.45  1.39454
0.985147  1.46  1.41686
0.986548  1.47  1.43917
0.987949  1.48  1.46149
0.989351  1.49  1.48381
0.990752  1.5  1.50612
0.992153  1.51  1.52844
0.993554  1.52  1.55076
0.994955  1.53  1.57307
0.996356  1.54  1.59539
0.997758  1.55  1.61771
0.999159  1.56  1.64002
1.00056  1.57  1.66234
1.00196  1.58  1.68466
1.00336  1.59  1.70698
1.00476  1.6  1.72929
1.00616  1.61  1.75161
1.00757  1.62  1.77393
1.00897  1.63  1.79624
1.01037  1.64  1.81856
1.01177  1.65  1.84088
1.01317  1.66  1.86319
1.01457  1.67  1.88551
1.01597  1.68  1.90783
1.01737  1.69  1.93014
1.01878  1.7  1.95246
1.02018  1.71  1.97478
1.02158  1.72  1.99709
1.02298  1.73  2.01941
1.02438  1.74  2.04173
1.02578  1.75  2.06404
1.02718  1.76  2.08636
1.02858  1.77  2.10868
1.02998  1.78  2.13099
1.03139  1.79  2.15331
1.03279  1.8  2.17563
1.03419  1.81  2.19794
1.03559  1.82  2.22026
1.03699  1.83  2.24258
1.03839  1.84  2.26489
1.03979  1.85  2.28721
1.04119  1.86  2.30953
1.0426  1.87  2.33184
1.044  1.88  2.35416
1.0454  1.89  2.37648
1.0468  1.9  2.39879
1.0482  1.91  2.42111
1.0496  1.92  2.44343
1.051  1.93  2.46574
1.0524  1.94  2.48806
1.0538  1.95  2.51038
1.05521  1.96  2.53269
1.05661  1.97  2.55501
1.05801  1.98  2.57733
1.05941  1.99  2.59964
1.06081  2  2.62196
0.894325  1  0.447418
0.89432  1.01  0.469779
0.894315  1.02  0.49214
0.89431  1.03  0.5145
0.894304  1.04  0.536861
0.894299  1.05  0.559222
0.894294  1.06  0.581582
0.894289  1.07  0.603943
0.894284  1.08  0.626304
0.894279  1.09  0.648664
0.894274  1.1  0.671025
0.894269  1.11  0.693386
0.894263  1.12  0.715746
0.894258  1.13  0.738107
0.894253  1.14  0.760468
0.894248  1.15  0.782828
0.894243  1.16  0.805189
0.894238  1.17  0.82755
0.894233  1.18  0.84991
0.894228  1.19  0.872271
0.894223  1.2  0.894632
0.894217  1.21  0.916992
0.894212  1.22  0.939353
0.894207  1.23  0.961714
0.894202  1.24  0.984075
0.894197  1.25  1.00644
0.894192  1.26  1.0288
0.894187  1.27  1.05116
0.894182  1.28  1.07352
0.894176  1.29  1.09588
0.894171  1.3  1.11824
0.894166  1.31  1.1406
0.894161  1.32  1.16296
0.894156  1.33  1.18532
0.894151  1.34  1.20768
0.894146  1.35  1.23004
0.894141  1.36  1.2524
0.894136  1.37  1.27476
0.89413  1.38  1.29712
0.894125  1.39  1.31948
0.89412  1.4  1.34185
0.894115  1.41  1.36421
0.89411  1.42  1.38657
0.894105  1.43  1.40893
0.8941  1.44  1.43129
0.894095  1.45  1.45365
0.89409  1.46  1.47601
0.894084  1.47  1.49837
0.894079  1.48  1.52073
0.894074  1.49  1.54309
0.894069  1.5  1.56545
0.894064  1.51  1.58781
0.894059  1.52  1.61017
0.894054  1.53  1.63253
0.894049  1.54  1.65489
0.894043  1.55  1.67726
0.894038  1.56  1.69962
0.894033  1.57  1.72198
0.894028  1.58  1.74434
0.894023  1.59  1.7667
0.894018  1.6  1.78906
0.894013  1.61  1.81142
0.894008  1.62  1.83378
0.894003  1.63  1.85614
0.893997  1.64  1.8785
0.893992  1.65  1.90086
0.893987  1.66  1.92322
0.893982  1.67  1.94558
0.893977  1.68  1.96794
0.893972  1.69  1.99031
0.893967  1.7  2.01267
0.893962  1.71  2.03503
0.893957  1.72  2.05739
0.893951  1.73  2.07975
0.893946  1.74  2.10211
0.893941  1.75  2.12447
0.893936  1.76  2.14683
0.893931  1.77  2.16919
0.893926  1.78  2.19155
0.893921  1.79  2.21391
0.893916  1.8  2.23627
0.89391  1.81  2.25863
0.893905  1.82  2.28099
0.8939  1.83  2.30335
0.893895  1.84  2.32572
0.89389  1.85  2.34808
0.893885  1.86  2.37044
0.89388  1.87  2.3928
0.893875  1.88  2.41516
0.89387  1.89  2.43752
0.893864  1.9  2.45988
0.893859  1.91  2.48224
0.893854  1.92  2.5046
0.893849  1.93  2.52696
0.893844  1.94  2.54932
0.893839  1.95  2.57168
0.893834  1.96  2.59404
0.893829  1.97  2.6164
0.893824  1.98  2.63876
0.893818  1.99  2.66113
0.893813  2  2.68349
0.863806  1  0.503824
0.862368  1.01  0.526139
0.860929  1.02  0.548453
0.859491  1.03  0.570767
0.858053  1.04  0.593082
0.856614  1.05  0.615396
0.855176  1.06  0.63771
0.853737  1.07  0.660025
0.852299  1.08  0.682339
0.85086  1.09  0.704654
0.849422  1.1  0.726968
0.847984  1.11  0.749282
0.846545  1.12  0.771597
0.845107  1.13  0.793911
0.843668  1.14  0.816225
0.84223  1.15  0.83854
0.840791  1.16  0.860854
0.839353  1.17  0.883168
0.837915  1.18  0.905483
0.836476  1.19  0.927797
0.835038  1.2  0.950112
0.833599  1.21  0.972426
0.832161  1.22  0.99474
0.830722  1.23  1.01705
0.829284  1.24  1.03937
0.827846  1.25  1.06168
0.826407  1.26  1.084
0.824969  1.27  1.10631
0.82353  1.28  1.12863
0.822092  1.29  1.15094
0.820654  1.3  1.17326
0.819215  1.31  1.19557
0.817777  1.32  1.21788
0.816338  1.33  1.2402
0.8149  1.34  1.26251
0.813461  1.35  1.28483
0.812023  1.36  1.30714
0.810585  1.37  1.32946
0.809146  1.38  1.35177
0.807708  1.39  1.37408
0.806269  1.4  1.3964
0.804831  1.41  1.41871
0.803392  1.42  1.44103
0.801954  1.43  1.46334
0.800516  1.44  1.48566
0.799077  1.45  1.50797
0.797639  1.46  1.53029
0.7962  1.47  1.5526
0.794762  1.48  1.57491
0.793324  1.49  1.59723
0.791885  1.5  1.61954
0.790447  1.51  1.64186
0.789008  1.52  1.66417
0.78757  1.53  1.68649
0.786131  1.54  1.7088
0.784693  1.55  1.73111
0.783255  1.56  1.75343
0.781816  1.57  1.77574
0.780378  1.58  1.79806
0.778939  1.59  1.82037
0.777501  1.6  1.84269
0.776062  1.61  1.865
0.774624  1.62  1.88731
0.773186  1.63  1.90963
0.771747  1.64  1.93194
0.770309  1.65  1.95426
0.76887  1.66  1.97657
0.767432  1.67  1.99889
0.765993  1.68  2.0212
0.764555  1.69  2.04352
0.763117  1.7  2.06583
0.761678  1.71  2.08814
0.76024  1.72  2.11046
0.758801  1.73  2.13277
0.757363  1.74  2.15509
0.755925  1.75  2.1774
0.754486  1.76  2.19972
0.753048  1.77  2.22203
0.751609  1.78  2.24434
0.750171  1.79  2.26666
0.748732  1.8  2.28897
0.747294  1.81  2.31129
0.745856  1.82  2.3336
0.744417  1.83  2.35592
0.742979  1.84  2.37823
0.74154  1.85  2.40055
0.740102  1.86  2.42286
0.738663  1.87  2.44517
0.737225  1.88  2.46749
0.735787  1.89  2.4898
0.734348  1.9  2.51212
0.73291  1.91  2.53443
0.731471  1.92  2.55675
0.730033  1.93  2.57906
0.728594  1.94  2.60137
0.727156  1.95  2.62369
0.725718  1.96  2.646
0.724279  1.97  2.66832
0.722841  1.98  2.69063
0.721402  1.99  2.71295
0.719964  2  2.73526
0.829114  1  0.55908
0.826223  1.01  0.581253
0.823333  1.02  0.603426
0.820443  1.03  0.625599
0.817552  1.04  0.647772
0.814662  1.05  0.669945
0.811771  1.06  0.692118
0.808881  1.07  0.714291
0.80599  1.08  0.736464
0.8031  1.09  0.758637
0.800209  1.1  0.78081
0.797319  1.11  0.802984
0.794428  1.12  0.825157
0.791538  1.13  0.84733
0.788648  1.14  0.869503
0.785757  1.15  0.891676
0.782867  1.16  0.913849
0.779976  1.17  0.936022
0.777086  1.18  0.958195
0.774195  1.19  0.980368
0.771305  1.2  1.00254
0.768414  1.21  1.02471
0.765524  1.22  1.04689
0.762633  1.23  1.06906
0.759743  1.24  1.09123
0.756853  1.25  1.11341
0.753962  1.26  1.13558
0.751072  1.27  1.15775
0.748181  1.28  1.17993
0.745291  1.29  1.2021
0.7424  1.3  1.22427
0.73951  1.31  1.24645
0.736619  1.32  1.26862
0.733729  1.33  1.29079
0.730838  1.34  1.31296
0.727948  1.35  1.33514
0.725058  1.36  1.35731
0.722167  1.37  1.37948
0.719277  1.38  1.40166
0.716386  1.39  1.42383
0.713496  1.4  1.446
0.710605  1.41  1.46818
0.707715  1.42  1.49035
0.704824  1.43  1.51252
0.701934  1.44  1.5347
0.699043  1.45  1.55687
0.696153  1.46  1.57904
0.693263  1.47  1.60121
0.690372  1.48  1.62339
0.687482  1.49  1.64556
0.684591  1.5  1.66773
0.681701  1.51  1.68991
0.67881  1.52  1.71208
0.67592  1.53  1.73425
0.673029  1.54  1.75643
0.670139  1.55  1.7786
0.667248  1.56  1.80077
0.664358  1.57  1.82294
0.661468  1.58  1.84512
0.658577  1.59  1.86729
0.655687  1.6  1.88946
0.652796  1.61  1.91164
0.649906  1.62  1.93381
0.647015  1.63  1.95598
0.644125  1.64  1.97816
0.641234  1.65  2.00033
0.638344  1.66  2.0225
0.635453  1.67  2.04468
0.632563  1.68  2.06685
0.629673  1.69  2.08902
0.626782  1.7  2.11119
0.623892  1.71  2.13337
0.621001  1.72  2.15554
0.618111  1.73  2.17771
0.61522  1.74  2.19989
0.61233  1.75  2.22206
0.609439  1.76  2.24423
0.606549  1.77  2.26641
0.603658  1.78  2.28858
0.600768  1.79  2.31075
0.597878  1.8  2.33293
0.594987  1.81  2.3551
0.592097  1.82  2.37727
0.589206  1.83  2.39944
0.586316  1.84  2.42162
0.583425  1.85  2.44379
0.580535  1.86  2.46596
0.577644  1.87  2.48814
0.574754  1.88  2.51031
0.571863  1.89  2.53248
0.568973  1.9  2.55466
0.566083  1.91  2.57683
0.563192  1.92  2.599
0.560302  1.93  2.62118
0.557411  1.94  2.64335
0.554521  1.95  2.66552
0.55163  1.96  2.68769
0.54874  1.97  2.70987
0.545849  1.98  2.73204
0.542959  1.99  2.75421
0.540068  2  2.77639
0.790281  1  0.612744
0.785929  1.01  0.634677
0.781577  1.02  0.656611
0.777225  1.03  0.678544
0.772873  1.04  0.700477
0.768521  1.05  0.72241
0.764169  1.06  0.744343
0.759817  1.07  0.766276
0.755465  1.08  0.788209
0.751112  1.09  0.810142
0.74676  1.1  0.832075
0.742408  1.11  0.854008
0.738056  1.12  0.875941
0.733704  1.13  0.897874
0.729352  1.14  0.919807
0.725  1.15  0.94174
0.720648  1.16  0.963673
0.716296  1.17  0.985607
0.711944  1.18  1.00754
0.707592  1.19  1.02947
0.70324  1.2  1.05141
0.698888  1.21  1.07334
0.694535  1.22  1.09527
0.690183  1.23  1.1172
0.685831  1.24  1.13914
0.681479  1.25  1.16107
0.677127  1.26  1.183
0.672775  1.27  1.20494
0.668423  1.28  1.22687
0.664071  1.29  1.2488
0.659719  1.3  1.27074
0.655367  1.31  1.29267
0.651015  1.32  1.3146
0.646663  1.33  1.33654
0.642311  1.34  1.35847
0.637959  1.35  1.3804
0.633606  1.36  1.40233
0.629254  1.37  1.42427
0.624902  1.38  1.4462
0.62055  1.39  1.46813
0.616198  1.4  1.49007
0.611846  1.41  1.512
0.607494  1.42  1.53393
0.603142  1.43  1.55587
0.59879  1.44  1.5778
0.594438  1.45  1.59973
0.590086  1.46  1.62167
0.585734  1.47  1.6436
0.581382  1.48  1.66553
0.577029  1.49  1.68746
0.572677  1.5  1.7094
0.568325  1.51  1.73133
0.563973  1.52  1.75326
0.559621  1.53  1.7752
0.555269  1.54  1.79713
0.550917  1.55  1.81906
0.546565  1.56  1.841
0.542213  1.57  1.86293
0.537861  1.58  1.88486
0.533509  1.59  1.9068
0.529157  1.6  1.92873
0.524805  1.61  1.95066
0.520452  1.62  1.97259
0.5161  1.63  1.99453
0.511748  1.64  2.01646
0.507396  1.65  2.03839
0.503044  1.66  2.06033
0.498692  1.67  2.08226
0.49434  1.68  2.10419
0.489988  1.69  2.12613
0.485636  1.7  2.14806
0.481284  1.71  2.16999
0.476932  1.72  2.19193
0.47258  1.73  2.21386
0.468228  1.74  2.23579
0.463875  1.75  2.25772
0.459523  1.76  2.27966
0.455171  1.77  2.30159
0.450819  1.78  2.32352
0.446467  1.79  2.34546
0.442115  1.8  2.36739
0.437763  1.81  2.38932
0.433411  1.82  2.41126
0.429059  1.83  2.43319
0.424707  1.84  2.45512
0.420355  1.85  2.47706
0.416003  1.86  2.49899
0.411651  1.87  2.52092
0.407298  1.88  2.54285
0.402946  1.89  2.56479
0.398594  1.9  2.58672
0.394242  1.91  2.60865
0.38989  1.92  2.63059
0.385538  1.93  2.65252
0.381186  1.94  2.67445
0.376834  1.95  2.69639
0.372482  1.96  2.71832
0.36813  1.97  2.74025
0.363778  1.98  2.76218
0.359426  1.99  2.78412
0.355074  2  2.80605
0.747401  1  0.664373
0.741588  1.01  0.685965
0.735774  1.02  0.707556
0.729961  1.03  0.729148
0.724147  1.04  0.75074
0.718334  1.05  0.772332
0.712521  1.06  0.793923
0.706707  1.07  0.815515
0.700894  1.08  0.837107
0.69508  1.09  0.858699
0.689267  1.1  0.88029
0.683453  1.11  0.901882
0.67764  1.12  0.923474
0.671826  1.13  0.945066
0.666013  1.14  0.966657
0.6602  1.15  0.988249
0.654386  1.16  1.00984
0.648573  1.17  1.03143
0.642759  1.18  1.05302
0.636946  1.19  1.07462
0.631132  1.2  1.09621
0.625319  1.21  1.1178
0.619505  1.22  1.13939
0.613692  1.23  1.16098
0.607879  1.24  1.18258
0.602065  1.25  1.20417
0.596252  1.26  1.22576
0.590438  1.27  1.24735
0.584625  1.28  1.26894
0.578811  1.29  1.29053
0.572998  1.3  1.31213
0.567184  1.31  1.33372
0.561371  1.32  1.35531
0.555558  1.33  1.3769
0.549744  1.34  1.39849
0.543931  1.35  1.42008
0.538117  1.36  1.44168
0.532304  1.37  1.46327
0.52649  1.38  1.48486
0.520677  1.39  1.50645
0.514863  1.4  1.52804
0.50905  1.41  1.54963
0.503237  1.42  1.57123
0.497423  1.43  1.59282
0.49161  1.44  1.61441
0.485796  1.45  1.636
0.479983  1.46  1.65759
0.474169  1.47  1.67919
0.468356  1.48  1.70078
0.462542  1.49  1.72237
0.456729  1.5  1.74396
0.450916  1.51  1.76555
0.445102  1.52  1.78714
0.439289  1.53  1.80874
0.433475  1.54  1.83033
0.427662  1.55  1.85192
0.421848  1.56  1.87351
0.416035  1.57  1.8951
0.410221  1.58  1.91669
0.404408  1.59  1.93829
0.398594  1.6  1.95988
0.392781  1.61  1.98147
0.386968  1.62  2.00306
0.381154  1.63  2.02465
0.375341  1.64  2.04625
0.369527  1.65  2.06784
0.363714  1.66  2.08943
0.3579  1.67  2.11102
0.352087  1.68  2.13261
0.346273  1.69  2.1542
0.34046  1.7  2.1758
0.334647  1.71  2.19739
0.328833  1.72  2.21898
0.32302  1.73  2.24057
0.317206  1.74  2.26216
0.311393  1.75  2.28375
0.305579  1.76  2.30535
0.299766  1.77  2.32694
0.293952  1.78  2.34853
0.288139  1.79  2.37012
0.282326  1.8  2.39171
0.276512  1.81  2.41331
0.270699  1.82  2.4349
0.264885  1.83  2.45649
0.259072  1.84  2.47808
0.253258  1.85  2.49967
0.247445  1.86  2.52126
0.241631  1.87  2.54286
0.235818  1.88  2.56445
0.230005  1.89  2.58604
0.224191  1.9  2.60763
0.218378  1.91  2.62922
0.212564  1.92  2.65081
0.206751  1.93  2.67241
0.200937  1.94  2.694
0.195124  1.95  2.71559