VARIABLES = X Y Z
Zone  I = 101 ,J = 101 , Datapacking = Point
1  1  0
1.01  1.01  0.02
1.02  1.02  0.04
1.03  1.03  0.06
1.04  1.04  0.08
1.05  1.05  0.1
1.06  1.06  0.12
1.07  1.07  0.14
1.08  1.08  0.16
1.09  1.09  0.18
1.1  1.1  0.2
1.11  1.11  0.22
1.12  1.12  0.24
1.13  1.13  0.26
1.14  1.14  0.28
1.15  1.15  0.3
1.16  1.16  0.32
1.17  1.17  0.34
1.18  1.18  0.36
1.19  1.19  0.38
1.2  1.2  0.4
1.21  1.21  0.42
1.22  1.22  0.44
1.23  1.23  0.46
1.24  1.24  0.48
1.25  1.25  0.5
1.26  1.26  0.52
1.27  1.27  0.54
1.28  1.28  0.56
1.29  1.29  0.58
1.3  1.3  0.6
1.31  1.31  0.62
1.32  1.32  0.64
1.33  1.33  0.66
1.34  1.34  0.68
1.35  1.35  0.7
1.36  1.36  0.72
1.37  1.37  0.74
1.38  1.38  0.76
1.39  1.39  0.78
1.4  1.4  0.8
1.41  1.41  0.82
1.42  1.42  0.84
1.43  1.43  0.86
1.44  1.44  0.88
1.45  1.45  0.9
1.46  1.46  0.92
1.47  1.47  0.94
1.48  1.48  0.96
1.49  1.49  0.98
1.5  1.5  1
1.51  1.51  1.02
1.52  1.52  1.04
1.53  1.53  1.06
1.54  1.54  1.08
1.55  1.55  1.1
1.56  1.56  1.12
1.57  1.57  1.14
1.58  1.58  1.16
1.59  1.59  1.18
1.6  1.6  1.2
1.61  1.61  1.22
1.62  1.62  1.24
1.63  1.63  1.26
1.64  1.64  1.28
1.65  1.65  1.3
1.66  1.66  1.32
1.67  1.67  1.34
1.68  1.68  1.36
1.69  1.69  1.38
1.7  1.7  1.4
1.71  1.71  1.42
1.72  1.72  1.44
1.73  1.73  1.46
1.74  1.74  1.48
1.75  1.75  1.5
1.76  1.76  1.52
1.77  1.77  1.54
1.78  1.78  1.56
1.79  1.79  1.58
1.8  1.8  1.6
1.81  1.81  1.62
1.82  1.82  1.64
1.83  1.83  1.66
1.84  1.84  1.68
1.85  1.85  1.7
1.86  1.86  1.72
1.87  1.87  1.74
1.88  1.88  1.76
1.89  1.89  1.78
1.9  1.9  1.8
1.91  1.91  1.82
1.92  1.92  1.84
1.93  1.93  1.86
1.94  1.94  1.88
1.95  1.95  1.9
1.96  1.96  1.92
1.97  1.97  1.94
1.98  1.98  1.96
1.99  1.99  1.98
2  2  2
1  0.99861  -0.0527161
1.01  1.00965  -0.0332711
1.02  1.02069  -0.0138261
1.03  1.03173  0.00561895
1.04  1.04277  0.025064
1.05  1.05381  0.044509
1.06  1.06485  0.063954
1.07  1.07589  0.0833991
1.08  1.08693  0.102844
1.09  1.09797  0.122289
1.1  1.10901  0.141734
1.11  1.12005  0.161179
1.12  1.13109  0.180624
1.13  1.14213  0.200069
1.14  1.15318  0.219514
1.15  1.16422  0.238959
1.16  1.17526  0.258404
1.17  1.1863  0.277849
1.18  1.19734  0.297294
1.19  1.20838  0.316739
1.2  1.21942  0.336184
1.21  1.23046  0.355629
1.22  1.2415  0.375075
1.23  1.25254  0.39452
1.24  1.26358  0.413965
1.25  1.27462  0.43341
1.26  1.28566  0.452855
1.27  1.2967  0.4723
1.28  1.30774  0.491745
1.29  1.31878  0.51119
1.3  1.32982  0.530635
1.31  1.34086  0.55008
1.32  1.3519  0.569525
1.33  1.36294  0.58897
1.34  1.37398  0.608415
1.35  1.38502  0.62786
1.36  1.39606  0.647305
1.37  1.40711  0.66675
1.38  1.41815  0.686195
1.39  1.42919  0.70564
1.4  1.44023  0.725085
1.41  1.45127  0.74453
1.42  1.46231  0.763975
1.43  1.47335  0.78342
1.44  1.48439  0.802865
1.45  1.49543  0.82231
1.46  1.50647  0.841755
1.47  1.51751  0.8612
1.48  1.52855  0.880645
1.49  1.53959  0.90009
1.5  1.55063  0.919535
1.51  1.56167  0.93898
1.52  1.57271  0.958425
1.53  1.58375  0.97787
1.54  1.59479  0.997315
1.55  1.60583  1.01676
1.56  1.61687  1.03621
1.57  1.62791  1.05565
1.58  1.63895  1.0751
1.59  1.64999  1.09454
1.6  1.66103  1.11399
1.61  1.67208  1.13343
1.62  1.68312  1.15288
1.63  1.69416  1.17232
1.64  1.7052  1.19177
1.65  1.71624  1.21121
1.66  1.72728  1.23066
1.67  1.73832  1.2501
1.68  1.74936  1.26955
1.69  1.7604  1.28899
1.7  1.77144  1.30844
1.71  1.78248  1.32788
1.72  1.79352  1.34733
1.73  1.80456  1.36677
1.74  1.8156  1.38622
1.75  1.82664  1.40566
1.76  1.83768  1.42511
1.77  1.84872  1.44455
1.78  1.85976  1.464
1.79  1.8708  1.48344
1.8  1.88184  1.50289
1.81  1.89288  1.52233
1.82  1.90392  1.54178
1.83  1.91496  1.56122
1.84  1.926  1.58067
1.85  1.93705  1.60011
1.86  1.94809  1.61956
1.87  1.95913  1.639
1.88  1.97017  1.65845
1.89  1.98121  1.67789
1.9  1.99225  1.69734
1.91  2.00329  1.71678
1.92  2.01433  1.73623
1.93  2.02537  1.75567
1.94  2.03641  1.77512
1.95  2.04745  1.79456
1.96  2.05849  1.81401
1.97  2.06953  1.83345
1.98  2.08057  1.8529
1.99  2.09161  1.87234
2  2.10265  1.89179
1  0.994277  -0.106831
1.01  1.00636  -0.0880134
1.02  1.01844  -0.0691961
1.03  1.03052  -0.0503789
1.04  1.04259  -0.0315616
1.05  1.05467  -0.0127444
1.06  1.06675  0.00607283
1.07  1.07883  0.0248901
1.08  1.09091  0.0437073
1.09  1.10299  0.0625245
1.1  1.11507  0.0813418
1.11  1.12715  0.100159
1.12  1.13923  0.118976
1.13  1.15131  0.137793
1.14  1.16339  0.156611
1.15  1.17547  0.175428
1.16  1.18755  0.194245
1.17  1.19963  0.213062
1.18  1.21171  0.23188
1.19  1.22379  0.250697
1.2  1.23586  0.269514
1.21  1.24794  0.288331
1.22  1.26002  0.307149
1.23  1.2721  0.325966
1.24  1.28418  0.344783
1.25  1.29626  0.3636
1.26  1.30834  0.382418
1.27  1.32042  0.401235
1.28  1.3325  0.420052
1.29  1.34458  0.438869
1.3  1.35666  0.457687
1.31  1.36874  0.476504
1.32  1.38082  0.495321
1.33  1.3929  0.514138
1.34  1.40498  0.532956
1.35  1.41706  0.551773
1.36  1.42914  0.57059
1.37  1.44121  0.589407
1.38  1.45329  0.608224
1.39  1.46537  0.627042
1.4  1.47745  0.645859
1.41  1.48953  0.664676
1.42  1.50161  0.683493
1.43  1.51369  0.702311
1.44  1.52577  0.721128
1.45  1.53785  0.739945
1.46  1.54993  0.758762
1.47  1.56201  0.77758
1.48  1.57409  0.796397
1.49  1.58617  0.815214
1.5  1.59825  0.834031
1.51  1.61033  0.852849
1.52  1.62241  0.871666
1.53  1.63448  0.890483
1.54  1.64656  0.9093
1.55  1.65864  0.928118
1.56  1.67072  0.946935
1.57  1.6828  0.965752
1.58  1.69488  0.984569
1.59  1.70696  1.00339
1.6  1.71904  1.0222
1.61  1.73112  1.04102
1.62  1.7432  1.05984
1.63  1.75528  1.07866
1.64  1.76736  1.09747
1.65  1.77944  1.11629
1.66  1.79152  1.13511
1.67  1.8036  1.15392
1.68  1.81568  1.17274
1.69  1.82775  1.19156
1.7  1.83983  1.21038
1.71  1.85191  1.22919
1.72  1.86399  1.24801
1.73  1.87607  1.26683
1.74  1.88815  1.28565
1.75  1.90023  1.30446
1.76  1.91231  1.32328
1.77  1.92439  1.3421
1.78  1.93647  1.36091
1.79  1.94855  1.37973
1.8  1.96063  1.39855
1.81  1.97271  1.41737
1.82  1.98479  1.43618
1.83  1.99687  1.455
1.84  2.00895  1.47382
1.85  2.02102  1.49263
1.86  2.0331  1.51145
1.87  2.04518  1.53027
1.88  2.05726  1.54909
1.89  2.06934  1.5679
1.9  2.08142  1.58672
1.91  2.0935  1.60554
1.92  2.10558  1.62436
1.93  2.11766  1.64317
1.94  2.12974  1.66199
1.95  2.14182  1.68081
1.96  2.1539  1.69962
1.97  2.16598  1.71844
1.98  2.17806  1.73726
1.99  2.19014  1.75608
2  2.20222  1.77489
1  0.986766  -0.16215
1.01  0.999877  -0.144036
1.02  1.01299  -0.125922
1.03  1.0261  -0.107808
1.04  1.03921  -0.0896945
1.05  1.05232  -0.0715807
1.06  1.06543  -0.0534669
1.07  1.07854  -0.0353531
1.08  1.09165  -0.0172392
1.09  1.10476  0.000874582
1.1  1.11787  0.0189884
1.11  1.13098  0.0371022
1.12  1.14409  0.0552161
1.13  1.1572  0.0733299
1.14  1.17032  0.0914437
1.15  1.18343  0.109558
1.16  1.19654  0.127671
1.17  1.20965  0.145785
1.18  1.22276  0.163899
1.19  1.23587  0.182013
1.2  1.24898  0.200127
1.21  1.26209  0.21824
1.22  1.2752  0.236354
1.23  1.28831  0.254468
1.24  1.30142  0.272582
1.25  1.31453  0.290696
1.26  1.32764  0.30881
1.27  1.34075  0.326923
1.28  1.35386  0.345037
1.29  1.36698  0.363151
1.3  1.38009  0.381265
1.31  1.3932  0.399379
1.32  1.40631  0.417493
1.33  1.41942  0.435606
1.34  1.43253  0.45372
1.35  1.44564  0.471834
1.36  1.45875  0.489948
1.37  1.47186  0.508062
1.38  1.48497  0.526175
1.39  1.49808  0.544289
1.4  1.51119  0.562403
1.41  1.5243  0.580517
1.42  1.53741  0.598631
1.43  1.55052  0.616745
1.44  1.56364  0.634858
1.45  1.57675  0.652972
1.46  1.58986  0.671086
1.47  1.60297  0.6892
1.48  1.61608  0.707314
1.49  1.62919  0.725428
1.5  1.6423  0.743541
1.51  1.65541  0.761655
1.52  1.66852  0.779769
1.53  1.68163  0.797883
1.54  1.69474  0.815997
1.55  1.70785  0.834111
1.56  1.72096  0.852224
1.57  1.73407  0.870338
1.58  1.74718  0.888452
1.59  1.76029  0.906566
1.6  1.77341  0.92468
1.61  1.78652  0.942793
1.62  1.79963  0.960907
1.63  1.81274  0.979021
1.64  1.82585  0.997135
1.65  1.83896  1.01525
1.66  1.85207  1.03336
1.67  1.86518  1.05148
1.68  1.87829  1.06959
1.69  1.8914  1.0877
1.7  1.90451  1.10582
1.71  1.91762  1.12393
1.72  1.93073  1.14205
1.73  1.94384  1.16016
1.74  1.95695  1.17827
1.75  1.97007  1.19639
1.76  1.98318  1.2145
1.77  1.99629  1.23261
1.78  2.0094  1.25073
1.79  2.02251  1.26884
1.8  2.03562  1.28696
1.81  2.04873  1.30507
1.82  2.06184  1.32318
1.83  2.07495  1.3413
1.84  2.08806  1.35941
1.85  2.10117  1.37753
1.86  2.11428  1.39564
1.87  2.12739  1.41375
1.88  2.1405  1.43187
1.89  2.15361  1.44998
1.9  2.16673  1.46809
1.91  2.17984  1.48621
1.92  2.19295  1.50432
1.93  2.20606  1.52244
1.94  2.21917  1.54055
1.95  2.23228  1.55866
1.96  2.24539  1.57678
1.97  2.2585  1.59489
1.98  2.27161  1.613
1.99  2.28472  1.63112
2  2.29783  1.64923
1  0.97585  -0.218443
1.01  0.989977  -0.20111
1.02  1.0041  -0.183778
1.03  1.01823  -0.166445
1.04  1.03236  -0.149113
1.05  1.04649  -0.13178
1.06  1.06061  -0.114448
1.07  1.07474  -0.0971149
1.08  1.08887  -0.0797824
1.09  1.103  -0.0624498
1.1  1.11712  -0.0451172
1.11  1.13125  -0.0277847
1.12  1.14538  -0.0104521
1.13  1.15951  0.00688045
1.14  1.17363  0.024213
1.15  1.18776  0.0415456
1.16  1.20189  0.0588781
1.17  1.21601  0.0762107
1.18  1.23014  0.0935433
1.19  1.24427  0.110876
1.2  1.2584  0.128208
1.21  1.27252  0.145541
1.22  1.28665  0.162874
1.23  1.30078  0.180206
1.24  1.31491  0.197539
1.25  1.32903  0.214871
1.26  1.34316  0.232204
1.27  1.35729  0.249536
1.28  1.37142  0.266869
1.29  1.38554  0.284202
1.3  1.39967  0.301534
1.31  1.4138  0.318867
1.32  1.42793  0.336199
1.33  1.44205  0.353532
1.34  1.45618  0.370864
1.35  1.47031  0.388197
1.36  1.48443  0.405529
1.37  1.49856  0.422862
1.38  1.51269  0.440195
1.39  1.52682  0.457527
1.4  1.54094  0.47486
1.41  1.55507  0.492192
1.42  1.5692  0.509525
1.43  1.58333  0.526857
1.44  1.59745  0.54419
1.45  1.61158  0.561523
1.46  1.62571  0.578855
1.47  1.63984  0.596188
1.48  1.65396  0.61352
1.49  1.66809  0.630853
1.5  1.68222  0.648185
1.51  1.69634  0.665518
1.52  1.71047  0.682851
1.53  1.7246  0.700183
1.54  1.73873  0.717516
1.55  1.75285  0.734848
1.56  1.76698  0.752181
1.57  1.78111  0.769513
1.58  1.79524  0.786846
1.59  1.80936  0.804178
1.6  1.82349  0.821511
1.61  1.83762  0.838844
1.62  1.85175  0.856176
1.63  1.86587  0.873509
1.64  1.88  0.890841
1.65  1.89413  0.908174
1.66  1.90826  0.925506
1.67  1.92238  0.942839
1.68  1.93651  0.960172
1.69  1.95064  0.977504
1.7  1.96476  0.994837
1.71  1.97889  1.01217
1.72  1.99302  1.0295
1.73  2.00715  1.04683
1.74  2.02127  1.06417
1.75  2.0354  1.0815
1.76  2.04953  1.09883
1.77  2.06366  1.11616
1.78  2.07778  1.1335
1.79  2.09191  1.15083
1.8  2.10604  1.16816
1.81  2.12017  1.18549
1.82  2.13429  1.20283
1.83  2.14842  1.22016
1.84  2.16255  1.23749
1.85  2.17667  1.25483
1.86  2.1908  1.27216
1.87  2.20493  1.28949
1.88  2.21906  1.30682
1.89  2.23318  1.32416
1.9  2.24731  1.34149
1.91  2.26144  1.35882
1.92  2.27557  1.37615
1.93  2.28969  1.39349
1.94  2.30382  1.41082
1.95  2.31795  1.42815
1.96  2.33208  1.44548
1.97  2.3462  1.46282
1.98  2.36033  1.48015
1.99  2.37446  1.49748
2  2.38859  1.51481
1  0.961318  -0.275441
1.01  0.97644  -0.258969
1.02  0.991562  -0.242497
1.03  1.00668  -0.226025
1.04  1.02181  -0.209553
1.05  1.03693  -0.193081
1.06  1.05205  -0.176609
1.07  1.06717  -0.160137
1.08  1.08229  -0.143665
1.09  1.09742  -0.127193
1.1  1.11254  -0.110721
1.11  1.12766  -0.0942493
1.12  1.14278  -0.0777773
1.13  1.1579  -0.0613053
1.14  1.17303  -0.0448334
1.15  1.18815  -0.0283614
1.16  1.20327  -0.0118895
1.17  1.21839  0.00458247
1.18  1.23351  0.0210544
1.19  1.24864  0.0375264
1.2  1.26376  0.0539983
1.21  1.27888  0.0704703
1.22  1.294  0.0869422
1.23  1.30912  0.103414
1.24  1.32425  0.119886
1.25  1.33937  0.136358
1.26  1.35449  0.15283
1.27  1.36961  0.169302
1.28  1.38473  0.185774
1.29  1.39986  0.202246
1.3  1.41498  0.218718
1.31  1.4301  0.23519
1.32  1.44522  0.251662
1.33  1.46034  0.268134
1.34  1.47547  0.284606
1.35  1.49059  0.301078
1.36  1.50571  0.31755
1.37  1.52083  0.334022
1.38  1.53595  0.350493
1.39  1.55108  0.366965
1.4  1.5662  0.383437
1.41  1.58132  0.399909
1.42  1.59644  0.416381
1.43  1.61156  0.432853
1.44  1.62669  0.449325
1.45  1.64181  0.465797
1.46  1.65693  0.482269
1.47  1.67205  0.498741
1.48  1.68717  0.515213
1.49  1.7023  0.531685
1.5  1.71742  0.548157
1.51  1.73254  0.564629
1.52  1.74766  0.581101
1.53  1.76278  0.597573
1.54  1.77791  0.614045
1.55  1.79303  0.630517
1.56  1.80815  0.646989
1.57  1.82327  0.663461
1.58  1.83839  0.679933
1.59  1.85352  0.696405
1.6  1.86864  0.712876
1.61  1.88376  0.729348
1.62  1.89888  0.74582
1.63  1.914  0.762292
1.64  1.92913  0.778764
1.65  1.94425  0.795236
1.66  1.95937  0.811708
1.67  1.97449  0.82818
1.68  1.98961  0.844652
1.69  2.00474  0.861124
1.7  2.01986  0.877596
1.71  2.03498  0.894068
1.72  2.0501  0.91054
1.73  2.06522  0.927012
1.74  2.08035  0.943484
1.75  2.09547  0.959956
1.76  2.11059  0.976428
1.77  2.12571  0.9929
1.78  2.14083  1.00937
1.79  2.15596  1.02584
1.8  2.17108  1.04232
1.81  2.1862  1.05879
1.82  2.20132  1.07526
1.83  2.21644  1.09173
1.84  2.23157  1.1082
1.85  2.24669  1.12468
1.86  2.26181  1.14115
1.87  2.27693  1.15762
1.88  2.29205  1.17409
1.89  2.30718  1.19056
1.9  2.3223  1.20704
1.91  2.33742  1.22351
1.92  2.35254  1.23998
1.93  2.36766  1.25645
1.94  2.38279  1.27292
1.95  2.39791  1.28939
1.96  2.41303  1.30587
1.97  2.42815  1.32234
1.98  2.44327  1.33881
1.99  2.4584  1.35528
2  2.47352  1.37175
1  0.942985  -0.332837
1.01  0.959071  -0.317305
1.02  0.975158  -0.301774
1.03  0.991244  -0.286243
1.04  1.00733  -0.270711
1.05  1.02342  -0.25518
1.06  1.0395  -0.239649
1.07  1.05559  -0.224117
1.08  1.07168  -0.208586
1.09  1.08776  -0.193055
1.1  1.10385  -0.177523
1.11  1.11994  -0.161992
1.12  1.13602  -0.146461
1.13  1.15211  -0.130929
1.14  1.1682  -0.115398
1.15  1.18428  -0.0998667
1.16  1.20037  -0.0843354
1.17  1.21646  -0.0688041
1.18  1.23254  -0.0532728
1.19  1.24863  -0.0377414
1.2  1.26472  -0.0222101
1.21  1.2808  -0.0066788
1.22  1.29689  0.00885253
1.23  1.31298  0.0243839
1.24  1.32906  0.0399152
1.25  1.34515  0.0554465
1.26  1.36124  0.0709778
1.27  1.37732  0.0865091
1.28  1.39341  0.10204
1.29  1.4095  0.117572
1.3  1.42558  0.133103
1.31  1.44167  0.148634
1.32  1.45775  0.164166
1.33  1.47384  0.179697
1.34  1.48993  0.195228
1.35  1.50601  0.21076
1.36  1.5221  0.226291
1.37  1.53819  0.241822
1.38  1.55427  0.257354
1.39  1.57036  0.272885
1.4  1.58645  0.288416
1.41  1.60253  0.303948
1.42  1.61862  0.319479
1.43  1.63471  0.33501
1.44  1.65079  0.350542
1.45  1.66688  0.366073
1.46  1.68297  0.381604
1.47  1.69905  0.397136
1.48  1.71514  0.412667
1.49  1.73123  0.428198
1.5  1.74731  0.44373
1.51  1.7634  0.459261
1.52  1.77949  0.474792
1.53  1.79557  0.490324
1.54  1.81166  0.505855
1.55  1.82775  0.521386
1.56  1.84383  0.536918
1.57  1.85992  0.552449
1.58  1.87601  0.56798
1.59  1.89209  0.583512
1.6  1.90818  0.599043
1.61  1.92427  0.614574
1.62  1.94035  0.630105
1.63  1.95644  0.645637
1.64  1.97253  0.661168
1.65  1.98861  0.676699
1.66  2.0047  0.692231
1.67  2.02079  0.707762
1.68  2.03687  0.723293
1.69  2.05296  0.738825
1.7  2.06904  0.754356
1.71  2.08513  0.769887
1.72  2.10122  0.785419
1.73  2.1173  0.80095
1.74  2.13339  0.816481
1.75  2.14948  0.832013
1.76  2.16556  0.847544
1.77  2.18165  0.863075
1.78  2.19774  0.878607
1.79  2.21382  0.894138
1.8  2.22991  0.909669
1.81  2.246  0.925201
1.82  2.26208  0.940732
1.83  2.27817  0.956263
1.84  2.29426  0.971795
1.85  2.31034  0.987326
1.86  2.32643  1.00286
1.87  2.34252  1.01839
1.88  2.3586  1.03392
1.89  2.37469  1.04945
1.9  2.39078  1.06498
1.91  2.40686  1.08051
1.92  2.42295  1.09605
1.93  2.43904  1.11158
1.94  2.45512  1.12711
1.95  2.47121  1.14264
1.96  2.4873  1.15817
1.97  2.50338  1.1737
1.98  2.51947  1.18923
1.99  2.53556  1.20476
2  2.55164  1.2203
1  0.920693  -0.390288
1.01  0.937706  -0.375777
1.02  0.954718  -0.361266
1.03  0.971731  -0.346755
1.04  0.988744  -0.332244
1.05  1.00576  -0.317733
1.06  1.02277  -0.303222
1.07  1.03978  -0.288711
1.08  1.05679  -0.2742
1.09  1.07381  -0.259689
1.1  1.09082  -0.245178
1.11  1.10783  -0.230667
1.12  1.12485  -0.216156
1.13  1.14186  -0.201645
1.14  1.15887  -0.187134
1.15  1.17588  -0.172623
1.16  1.1929  -0.158112
1.17  1.20991  -0.143601
1.18  1.22692  -0.12909
1.19  1.24393  -0.114579
1.2  1.26095  -0.100068
1.21  1.27796  -0.085557
1.22  1.29497  -0.0710461
1.23  1.31198  -0.0565351
1.24  1.329  -0.0420241
1.25  1.34601  -0.0275131
1.26  1.36302  -0.0130021
1.27  1.38004  0.00150885
1.28  1.39705  0.0160198
1.29  1.41406  0.0305308
1.3  1.43107  0.0450418
1.31  1.44809  0.0595528
1.32  1.4651  0.0740638
1.33  1.48211  0.0885747
1.34  1.49912  0.103086
1.35  1.51614  0.117597
1.36  1.53315  0.132108
1.37  1.55016  0.146619
1.38  1.56717  0.16113
1.39  1.58419  0.175641
1.4  1.6012  0.190152
1.41  1.61821  0.204663
1.42  1.63523  0.219174
1.43  1.65224  0.233685
1.44  1.66925  0.248196
1.45  1.68626  0.262707
1.46  1.70328  0.277218
1.47  1.72029  0.291729
1.48  1.7373  0.306239
1.49  1.75431  0.32075
1.5  1.77133  0.335261
1.51  1.78834  0.349772
1.52  1.80535  0.364283
1.53  1.82237  0.378794
1.54  1.83938  0.393305
1.55  1.85639  0.407816
1.56  1.8734  0.422327
1.57  1.89042  0.436838
1.58  1.90743  0.451349
1.59  1.92444  0.46586
1.6  1.94145  0.480371
1.61  1.95847  0.494882
1.62  1.97548  0.509393
1.63  1.99249  0.523904
1.64  2.0095  0.538415
1.65  2.02652  0.552926
1.66  2.04353  0.567437
1.67  2.06054  0.581948
1.68  2.07756  0.596459
1.69  2.09457  0.61097
1.7  2.11158  0.625481
1.71  2.12859  0.639992
1.72  2.14561  0.654503
1.73  2.16262  0.669014
1.74  2.17963  0.683525
1.75  2.19664  0.698036
1.76  2.21366  0.712547
1.77  2.23067  0.727058
1.78  2.24768  0.741569
1.79  2.26469  0.75608
1.8  2.28171  0.770591
1.81  2.29872  0.785102
1.82  2.31573  0.799613
1.83  2.33275  0.814124
1.84  2.34976  0.828635
1.85  2.36677  0.843146
1.86  2.38378  0.857657
1.87  2.4008  0.872168
1.88  2.41781  0.886679
1.89  2.43482  0.90119
1.9  2.45183  0.915701
1.91  2.46885  0.930212
1.92  2.48586  0.944723
1.93  2.50287  0.959234
1.94  2.51989  0.973745
1.95  2.5369  0.988256
1.96  2.55391  1.00277
1.97  2.57092  1.01728
1.98  2.58794  1.03179
1.99  2.60495  1.0463
2  2.62196  1.06081
1  0.894325  -0.447418
1.01  0.912216  -0.434006
1.02  0.930108  -0.420594
1.03  0.948  -0.407181
1.04  0.965891  -0.393769
1.05  0.983783  -0.380357
1.06  1.00167  -0.366944
1.07  1.01957  -0.353532
1.08  1.03746  -0.34012
1.09  1.05535  -0.326707
1.1  1.07324  -0.313295
1.11  1.09113  -0.299883
1.12  1.10902  -0.28647
1.13  1.12692  -0.273058
1.14  1.14481  -0.259646
1.15  1.1627  -0.246233
1.16  1.18059  -0.232821
1.17  1.19848  -0.219409
1.18  1.21637  -0.205997
1.19  1.23427  -0.192584
1.2  1.25216  -0.179172
1.21  1.27005  -0.16576
1.22  1.28794  -0.152347
1.23  1.30583  -0.138935
1.24  1.32372  -0.125523
1.25  1.34162  -0.11211
1.26  1.35951  -0.098698
1.27  1.3774  -0.0852857
1.28  1.39529  -0.0718734
1.29  1.41318  -0.0584611
1.3  1.43107  -0.0450488
1.31  1.44896  -0.0316364
1.32  1.46686  -0.0182241
1.33  1.48475  -0.00481182
1.34  1.50264  0.0086005
1.35  1.52053  0.0220128
1.36  1.53842  0.0354251
1.37  1.55631  0.0488374
1.38  1.57421  0.0622498
1.39  1.5921  0.0756621
1.4  1.60999  0.0890744
1.41  1.62788  0.102487
1.42  1.64577  0.115899
1.43  1.66366  0.129311
1.44  1.68156  0.142724
1.45  1.69945  0.156136
1.46  1.71734  0.169548
1.47  1.73523  0.182961
1.48  1.75312  0.196373
1.49  1.77101  0.209785
1.5  1.78891  0.223198
1.51  1.8068  0.23661
1.52  1.82469  0.250022
1.53  1.84258  0.263434
1.54  1.86047  0.276847
1.55  1.87836  0.290259
1.56  1.89626  0.303671
1.57  1.91415  0.317084
1.58  1.93204  0.330496
1.59  1.94993  0.343908
1.6  1.96782  0.357321
1.61  1.98571  0.370733
1.62  2.0036  0.384145
1.63  2.0215  0.397558
1.64  2.03939  0.41097
1.65  2.05728  0.424382
1.66  2.07517  0.437795
1.67  2.09306  0.451207
1.68  2.11095  0.464619
1.69  2.12885  0.478032
1.7  2.14674  0.491444
1.71  2.16463  0.504856
1.72  2.18252  0.518268
1.73  2.20041  0.531681
1.74  2.2183  0.545093
1.75  2.2362  0.558505
1.76  2.25409  0.571918
1.77  2.27198  0.58533
1.78  2.28987  0.598742
1.79  2.30776  0.612155
1.8  2.32565  0.625567
1.81  2.34355  0.638979
1.82  2.36144  0.652392
1.83  2.37933  0.665804
1.84  2.39722  0.679216
1.85  2.41511  0.692629
1.86  2.433  0.706041
1.87  2.4509  0.719453
1.88  2.46879  0.732866
1.89  2.48668  0.746278
1.9  2.50457  0.75969
1.91  2.52246  0.773102
1.92  2.54035  0.786515
1.93  2.55824  0.799927
1.94  2.57614  0.813339
1.95  2.59403  0.826752
1.96  2.61192  0.840164
1.97  2.62981  0.853576
1.98  2.6477  0.866989
1.99  2.66559  0.880401
2  2.68349  0.893813
1  0.863806  -0.503824
1.01  0.882521  -0.491586
1.02  0.901235  -0.479348
1.03  0.91995  -0.467111
1.04  0.938664  -0.454873
1.05  0.957379  -0.442635
1.06  0.976093  -0.430397
1.07  0.994808  -0.418159
1.08  1.01352  -0.405921
1.09  1.03224  -0.393683
1.1  1.05095  -0.381445
1.11  1.06967  -0.369208
1.12  1.08838  -0.35697
1.13  1.1071  -0.344732
1.14  1.12581  -0.332494
1.15  1.14452  -0.320256
1.16  1.16324  -0.308018
1.17  1.18195  -0.29578
1.18  1.20067  -0.283542
1.19  1.21938  -0.271304
1.2  1.2381  -0.259067
1.21  1.25681  -0.246829
1.22  1.27553  -0.234591
1.23  1.29424  -0.222353
1.24  1.31296  -0.210115
1.25  1.33167  -0.197877
1.26  1.35038  -0.185639
1.27  1.3691  -0.173401
1.28  1.38781  -0.161164
1.29  1.40653  -0.148926
1.3  1.42524  -0.136688
1.31  1.44396  -0.12445
1.32  1.46267  -0.112212
1.33  1.48139  -0.0999741
1.34  1.5001  -0.0877362
1.35  1.51882  -0.0754984
1.36  1.53753  -0.0632605
1.37  1.55624  -0.0510226
1.38  1.57496  -0.0387847
1.39  1.59367  -0.0265468
1.4  1.61239  -0.0143089
1.41  1.6311  -0.00207106
1.42  1.64982  0.0101668
1.43  1.66853  0.0224047
1.44  1.68725  0.0346426
1.45  1.70596  0.0468805
1.46  1.72468  0.0591183
1.47  1.74339  0.0713562
1.48  1.7621  0.0835941
1.49  1.78082  0.095832
1.5  1.79953  0.10807
1.51  1.81825  0.120308
1.52  1.83696  0.132546
1.53  1.85568  0.144784
1.54  1.87439  0.157021
1.55  1.89311  0.169259
1.56  1.91182  0.181497
1.57  1.93054  0.193735
1.58  1.94925  0.205973
1.59  1.96796  0.218211
1.6  1.98668  0.230449
1.61  2.00539  0.242687
1.62  2.02411  0.254924
1.63  2.04282  0.267162
1.64  2.06154  0.2794
1.65  2.08025  0.291638
1.66  2.09897  0.303876
1.67  2.11768  0.316114
1.68  2.1364  0.328352
1.69  2.15511  0.34059
1.7  2.17382  0.352828
1.71  2.19254  0.365065
1.72  2.21125  0.377303
1.73  2.22997  0.389541
1.74  2.24868  0.401779
1.75  2.2674  0.414017
1.76  2.28611  0.426255
1.77  2.30483  0.438493
1.78  2.32354  0.450731
1.79  2.34226  0.462968
1.8  2.36097  0.475206
1.81  2.37968  0.487444
1.82  2.3984  0.499682
1.83  2.41711  0.51192
1.84  2.43583  0.524158
1.85  2.45454  0.536396
1.86  2.47326  0.548634
1.87  2.49197  0.560872
1.88  2.51069  0.573109
1.89  2.5294  0.585347
1.9  2.54812  0.597585
1.91  2.56683  0.609823
1.92  2.58554  0.622061
1.93  2.60426  0.634299
1.94  2.62297  0.646537
1.95  2.64169  0.658775
1.96  2.6604  0.671012
1.97  2.67912  0.68325
1.98  2.69783  0.695488
1.99  2.71655  0.707726
2  2.73526  0.719964
1  0.829114  -0.55908
1.01  0.848587  -0.548088
1.02  0.868059  -0.537097
1.03  0.887532  -0.526105
1.04  0.907005  -0.515114
1.05  0.926478  -0.504122
1.06  0.94595  -0.493131
1.07  0.965423  -0.482139
1.08  0.984896  -0.471148
1.09  1.00437  -0.460156
1.1  1.02384  -0.449165
1.11  1.04331  -0.438173
1.12  1.06279  -0.427182
1.13  1.08226  -0.41619
1.14  1.10173  -0.405199
1.15  1.1212  -0.394207
1.16  1.14068  -0.383216
1.17  1.16015  -0.372225
1.18  1.17962  -0.361233
1.19  1.1991  -0.350242
1.2  1.21857  -0.33925
1.21  1.23804  -0.328259
1.22  1.25751  -0.317267
1.23  1.27699  -0.306276
1.24  1.29646  -0.295284
1.25  1.31593  -0.284293
1.26  1.3354  -0.273301
1.27  1.35488  -0.26231
1.28  1.37435  -0.251318
1.29  1.39382  -0.240327
1.3  1.4133  -0.229335
1.31  1.43277  -0.218344
1.32  1.45224  -0.207352
1.33  1.47171  -0.196361
1.34  1.49119  -0.185369
1.35  1.51066  -0.174378
1.36  1.53013  -0.163386
1.37  1.54961  -0.152395
1.38  1.56908  -0.141403
1.39  1.58855  -0.130412
1.4  1.60802  -0.11942
1.41  1.6275  -0.108429
1.42  1.64697  -0.0974375
1.43  1.66644  -0.086446
1.44  1.68591  -0.0754545
1.45  1.70539  -0.064463
1.46  1.72486  -0.0534715
1.47  1.74433  -0.0424801
1.48  1.76381  -0.0314886
1.49  1.78328  -0.0204971
1.5  1.80275  -0.00950561
1.51  1.82222  0.00148587
1.52  1.8417  0.0124774
1.53  1.86117  0.0234688
1.54  1.88064  0.0344603
1.55  1.90011  0.0454518
1.56  1.91959  0.0564433
1.57  1.93906  0.0674348
1.58  1.95853  0.0784262
1.59  1.97801  0.0894177
1.6  1.99748  0.100409
1.61  2.01695  0.111401
1.62  2.03642  0.122392
1.63  2.0559  0.133384
1.64  2.07537  0.144375
1.65  2.09484  0.155367
1.66  2.11431  0.166358
1.67  2.13379  0.17735
1.68  2.15326  0.188341
1.69  2.17273  0.199333
1.7  2.19221  0.210324
1.71  2.21168  0.221316
1.72  2.23115  0.232307
1.73  2.25062  0.243298
1.74  2.2701  0.25429
1.75  2.28957  0.265281
1.76  2.30904  0.276273
1.77  2.32851  0.287264
1.78  2.34799  0.298256
1.79  2.36746  0.309247
1.8  2.38693  0.320239
1.81  2.40641  0.33123
1.82  2.42588  0.342222
1.83  2.44535  0.353213
1.84  2.46482  0.364205
1.85  2.4843  0.375196
1.86  2.50377  0.386188
1.87  2.52324  0.397179
1.88  2.54271  0.408171
1.89  2.56219  0.419162
1.9  2.58166  0.430154
1.91  2.60113  0.441145
1.92  2.62061  0.452137
1.93  2.64008  0.463128
1.94  2.65955  0.47412
1.95  2.67902  0.485111
1.96  2.6985  0.496103
1.97  2.71797  0.507094
1.98  2.73744  0.518086
1.99  2.75691  0.529077
2  2.77639  0.540068
1  0.790281  -0.612744
1.01  0.810439  -0.603066
1.02  0.830597  -0.593388
1.03  0.850754  -0.58371
1.04  0.870912  -0.574032
1.05  0.89107  -0.564353
1.06  0.911227  -0.554675
1.07  0.931385  -0.544997
1.08  0.951543  -0.535319
1.09  0.9717  -0.525641
1.1  0.991858  -0.515963
1.11  1.01202  -0.506284
1.12  1.03217  -0.496606
1.13  1.05233  -0.486928
1.14  1.07249  -0.47725
1.15  1.09265  -0.467572
1.16  1.1128  -0.457894
1.17  1.13296  -0.448215
1.18  1.15312  -0.438537
1.19  1.17328  -0.428859
1.2  1.19344  -0.419181
1.21  1.21359  -0.409503
1.22  1.23375  -0.399824
1.23  1.25391  -0.390146
1.24  1.27407  -0.380468
1.25  1.29422  -0.37079
1.26  1.31438  -0.361112
1.27  1.33454  -0.351434
1.28  1.3547  -0.341755
1.29  1.37485  -0.332077
1.3  1.39501  -0.322399
1.31  1.41517  -0.312721
1.32  1.43533  -0.303043
1.33  1.45549  -0.293364
1.34  1.47564  -0.283686
1.35  1.4958  -0.274008
1.36  1.51596  -0.26433
1.37  1.53612  -0.254652
1.38  1.55627  -0.244974
1.39  1.57643  -0.235295
1.4  1.59659  -0.225617
1.41  1.61675  -0.215939
1.42  1.6369  -0.206261
1.43  1.65706  -0.196583
1.44  1.67722  -0.186904
1.45  1.69738  -0.177226
1.46  1.71754  -0.167548
1.47  1.73769  -0.15787
1.48  1.75785  -0.148192
1.49  1.77801  -0.138514
1.5  1.79817  -0.128835
1.51  1.81832  -0.119157
1.52  1.83848  -0.109479
1.53  1.85864  -0.0998009
1.54  1.8788  -0.0901227
1.55  1.89895  -0.0804445
1.56  1.91911  -0.0707663
1.57  1.93927  -0.0610882
1.58  1.95943  -0.05141
1.59  1.97959  -0.0417318
1.6  1.99974  -0.0320536
1.61  2.0199  -0.0223754
1.62  2.04006  -0.0126973
1.63  2.06022  -0.00301908
1.64  2.08037  0.0066591
1.65  2.10053  0.0163373
1.66  2.12069  0.0260155
1.67  2.14085  0.0356936
1.68  2.161  0.0453718
1.69  2.18116  0.05505
1.7  2.20132  0.0647282
1.71  2.22148  0.0744064
1.72  2.24164  0.0840845
1.73  2.26179  0.0937627
1.74  2.28195  0.103441
1.75  2.30211  0.113119
1.76  2.32227  0.122797
1.77  2.34242  0.132475
1.78  2.36258  0.142154
1.79  2.38274  0.151832
1.8  2.4029  0.16151
1.81  2.42305  0.171188
1.82  2.44321  0.180866
1.83  2.46337  0.190545
1.84  2.48353  0.200223
1.85  2.50369  0.209901
1.86  2.52384  0.219579
1.87  2.544  0.229257
1.88  2.56416  0.238935
1.89  2.58432  0.248614
1.9  2.60447  0.258292
1.91  2.62463  0.26797
1.92  2.64479  0.277648
1.93  2.66495  0.287326
1.94  2.6851  0.297004
1.95  2.70526  0.306683
1.96  2.72542  0.316361
1.97  2.74558  0.326039
1.98  2.76574  0.335717
1.99  2.78589  0.345395
2  2.80605  0.355074
1  0.747401  -0.664373
1.01  0.768163  -0.656069
1.02  0.788924  -0.647764
1.03  0.809686  -0.63946
1.04  0.830447  -0.631156
1.05  0.851209  -0.622851
1.06  0.87197  -0.614547
1.07  0.892732  -0.606243
1.08  0.913493  -0.597939
1.09  0.934254  -0.589634
1.1  0.955016  -0.58133
1.11  0.975777  -0.573026
1.12  0.996539  -0.564721
1.13  1.0173  -0.556417
1.14  1.03806  -0.548113
1.15  1.05882  -0.539808
1.16  1.07958  -0.531504
1.17  1.10035  -0.5232
1.18  1.12111  -0.514896
1.19  1.14187  -0.506591
1.2  1.16263  -0.498287
1.21  1.18339  -0.489983
1.22  1.20415  -0.481678
1.23  1.22492  -0.473374
1.24  1.24568  -0.46507
1.25  1.26644  -0.456766
1.26  1.2872  -0.448461
1.27  1.30796  -0.440157
1.28  1.32872  -0.431853
1.29  1.34948  -0.423548
1.3  1.37025  -0.415244
1.31  1.39101  -0.40694
1.32  1.41177  -0.398635
1.33  1.43253  -0.390331
1.34  1.45329  -0.382027
1.35  1.47405  -0.373723
1.36  1.49481  -0.365418
1.37  1.51558  -0.357114
1.38  1.53634  -0.34881
1.39  1.5571  -0.340505
1.4  1.57786  -0.332201
1.41  1.59862  -0.323897
1.42  1.61938  -0.315592
1.43  1.64014  -0.307288
1.44  1.66091  -0.298984
1.45  1.68167  -0.29068
1.46  1.70243  -0.282375
1.47  1.72319  -0.274071
1.48  1.74395  -0.265767
1.49  1.76471  -0.257462
1.5  1.78547  -0.249158
1.51  1.80624  -0.240854
1.52  1.827  -0.23255
1.53  1.84776  -0.224245
1.54  1.86852  -0.215941
1.55  1.88928  -0.207637
1.56  1.91004  -0.199332
1.57  1.93081  -0.191028
1.58  1.95157  -0.182724
1.59  1.97233  -0.174419
1.6  1.99309  -0.166115
1.61  2.01385  -0.157811
1.62  2.03461  -0.149507
1.63  2.05537  -0.141202
1.64  2.07614  -0.132898
1.65  2.0969  -0.124594
1.66  2.11766  -0.116289
1.67  2.13842  -0.107985
1.68  2.15918  -0.0996808