VARIABLES = X Y Z
ZONE N =4778, E =9513, DATAPACKING = POINT, ZONETYPE = FETRIANGLE
3  2  7
3  2.95726  6.88377
3  3.85889  6.54182
3  4.65249  5.99404
3  5.29194  5.27226
3  5.74006  4.41842
3  5.97084  3.48215
3  5.97084  2.51785
3  5.74006  1.58158
3  5.29194  0.727741
3  4.65249  0.00595701
3  3.85889  -0.541824
3  2.95726  -0.883767
3  2  -1
3  1.04274  -0.883767
3  0.141107  -0.541824
3  -0.652491  0.00595701
3  -1.29194  0.727741
3  -1.74006  1.58158
3  -1.97084  2.51785
3  -1.97084  3.48215
3  -1.74006  4.41842
3  -1.29194  5.27226
3  -0.652491  5.99404
3  0.141107  6.54182
3  1.04274  6.88377
3  2  7
1  2  3
1  8.66667  3
1  10.8889  3
1.00278  11.9931  3.00556
2.00278  9.49306  5.00556
2.99992  7.00019  6.99985
3  6.49861  7
1  2  3
1  8.66667  3
1  10.8889  3
1.00278  11.9931  3.00556
2.00278  9.49306  5.00556
2.99992  7.00019  6.99985
3  6.49861  7
1.00312  11.6367  5.64151
1.01137  11.6131  5.64972
1.01049  11.6081  5.67582
1.00224  11.6318  5.66768
1  11.6322  5.60694
1.00356  11.6392  5.62842
1.01137  11.6181  5.63156
1.00356  11.6416  5.61932
1.00444  11.6464  5.59313
1  11.6781  5.50206
1.01313  11.6277  5.57932
1.0062  11.6558  5.54074
1.01401  11.6324  5.55319
1.00664  11.6581  5.52764
1.01445  11.6347  5.54012
1.00685  11.6593  5.52109
1.00707  11.6604  5.51454
1.01467  11.6359  5.53358
1  11.6838  5.4889
1.00718  11.661  5.51126
1.00102  11.6927  5.44947
1.00278  11.7013  5.39689
1.00014  11.6883  5.47575
1.00718  11.7149  5.29405
1.00014  11.729  5.31077
1  11.7312  5.29646
1.00102  11.7199  5.33951
1.01467  11.6962  5.29177
1.00707  11.716  5.29046
1  11.7323  5.28218
1.01445  11.6985  5.2846
1.00685  11.7182  5.28328
1.01423  11.7007  5.27743
1.00675  11.7194  5.27969
1.00653  11.7216  5.2725
1.01379  11.7052  5.26308
1.00565  11.7306  5.24374
1.01203  11.7229  5.2056
1  11.7404  5.16797
1.00389  11.7482  5.18612
1.01115  11.7317  5.17682
1.00345  11.7525  5.17169
1.01071  11.736  5.16242
1.00323  11.7547  5.16448
1.00279  11.759  5.15004
1.00983  11.7446  5.13358
1.00103  11.776  5.09221
1.00632  11.7782  5.01794
1  11.6534  5.07221
1  11.7899  4.97737
1.00456  11.7944  4.95994
1  11.7525  4.9399
1  11.707  4.76822
1  11.5732  4.75436
1  11.7609  4.48558
1  11.7911  4.94878
1.00456  11.8009  4.92756
1  11.7949  4.91831
1.00368  11.8088  4.89849
1  11.797  4.86116
1.00017  11.8395  4.78191
1  11.802  4.63297
1  11.8439  4.55293
1  11.843  4.66728
1.01162  11.8368  4.63012
1.00237  11.867  4.58884
1.0081  11.8644  4.51296
1.00062  11.8807  4.53012
1  11.8439  4.49583
1  11.8854  4.50095
1.00018  11.8897  4.47809
1  11.8552  4.44999
1.00106  11.8941  4.43282
1.00986  11.8734  4.42264
1.00281  11.9024  4.34226
1  11.8982  4.26591
1.02042  11.8608  4.32241
1.04506  11.7906  4.38299
1.04155  11.7724  4.56194
1.01689  11.9011  4.06107
1.00633  11.9164  4.16105
1  11.9378  4.08072
1  11.3825  4.13924
1  11.7149  3.58764
1.0028  11.9525  3.89819
1  11.9152  3.75022
1  11.9449  3.82213
1.00456  11.9559  3.80736
1  11.953  3.77552
1.00456  11.9589  3.76976
1  10.6306  0.87275
1  11.9545  3.75673
1.005  11.9595  3.74705
1  11.9642  3.69837
1.00676  11.9615  3.65623
1.00125  11.9837  3.51305
1  11.8688  3.2982
1  11.9716  3.3767
1.0248  11.9212  3.57932
1.01027  11.963  3.47467
1.00301  11.9836  3.42212
1.01115  11.9629  3.42931
1.00345  11.9834  3.39939
1.01137  11.9628  3.41797
1.00356  11.9833  3.39371
1.00367  11.9833  3.38803
1.01159  11.9628  3.40663
1.00389  11.9832  3.37666
1.01203  11.9626  3.38396
1.00477  11.9826  3.33123
1.01379  11.9613  3.29329
1  11.9945  3.18872
1.00653  11.9808  3.24039
1.01467  11.9603  3.24798
1.00696  11.9802  3.21769
1.01489  11.96  3.23666
1.00707  11.9801  3.21202
1.00729  11.9798  3.20067
1  11.9971  3.16517
1.0074  11.9796  3.195
1.00102  11.997  3.09641
1  11.9984  3.15339
1.00014  11.9986  3.14187
1.00003  11.9993  3.1098
1  11.9916  3.08489
1  11.9944  3.12502
1  11.9891  3.10844
1  11.9386  3.01055
1  11.9784  3.07536
1  11.9424  3.15018
1  11.9962  3.03775
1  11.8678  3.01164
1  11.8722  3.00233
1  11.943  3.00117
1.00102  11.9974  3.02091
2.99992  7.81212  5.68699
2.99992  8.28627  4.21798
2.99992  8.13224  1.15709
2.99992  7.51301  -0.256897
2.99992  6.57339  -1.48161
2.99992  5.36798  -2.44586
2.99992  3.96683  -3.09363
2.99992  2.45138  -3.38725
2.99992  0.90969  -3.30967
2.99992  -0.56863  -2.86539
2.99992  -1.89767  -2.08024
2.99992  -3.00019  -0.999846
2.99992  -3.81212  0.313007
2.99992  -4.28627  1.78202
2.99992  -4.39509  3.32181
2.99992  -4.13224  4.84291
2.99992  -3.51301  6.2569
1  10.6306  5.12725
2.99992  -2.57339  7.48161
2.99992  -1.36798  8.44586
2.99992  0.0331721  9.09363
2.99992  1.54862  9.38725
2.99992  3.09031  9.30967
2.99992  4.56863  8.86539
2.99992  5.89767  8.08024
1  6.15563  1.42398
1  9.87072  -1.13087
1  5.93536  0.934564
1  5.65771  0.475268
1  8.65343  -2.89442
1  5.32671  0.0527882
1  11.3825  1.86076
1  4.94721  -0.326714
1  7.04946  -4.31541
1  11.1767  0.738135
1  4.52473  -0.657706
1  10.8372  -0.351509
1  4.06544  -0.93536
1  5.15204  -5.31126
1  10.3688  -1.39228
1  3.57602  -1.15563
1  9.77834  -2.369
1  3.06363  -1.3153
1  3.07144  -5.82408
1  9.07447  -3.26743
1  2.53572  -1.41204
1  8.26743  -4.07447
1  2  -1.44444
1  -1.15204  -5.31126
1  0.928563  -5.82408
1  7.369  -4.77834
1  6.39228  -5.36879
1  5.35151  -5.8372
1  4.26187  -6.17675
1  3.13924  -6.38248
1  2  -6.45139
1  0.860761  -6.38248
1  -0.261865  -6.17675
1  -1.35151  -5.8372
1  -2.39228  -5.36879
1  -3.04946  -4.31541
1  -3.369  -4.77834
1  -4.26743  -4.07447
1  -4.65343  -2.89442
1  -5.07447  -3.26743
1  -5.77834  -2.369
1  -5.87072  -1.13087
1  -6.36879  -1.39228
3  6.92408  5.41054
2.99992  8.39509  2.67819
1  -6.8372  -0.351509
1  -6.63059  0.87275
1  -7.17675  0.738135
1  -7.38248  1.86076
1  -6.88889  3
1  -7.45139  3
1  -7.38248  4.13924
1  -6.63059  5.12725
1  -7.17675  5.26187
1  -6.8372  6.35151
1  -5.87072  7.13087
1  -6.36879  7.39228
1  -5.77834  8.369
1  -4.65343  8.89442
1  -5.07447  9.26743
1  -4.26743  10.0745
1  -3.04946  10.3154
1  2  7.44444
1  0.928563  11.8241
1  -1.15204  11.3113
1  3.07144  11.8241
1  -3.369  10.7783
1  2.53572  7.41204
1  -2.39228  11.3688
1  3.06363  7.3153
1  5.15204  11.3113
1  -1.35151  11.8372
1  3.57602  7.15563
1  -0.261865  12.1767
1  4.06544  6.93536
1  7.04946  10.3154
1  0.860761  12.3825
1  4.52473  6.65771
1  2  12.4514
1  4.94721  6.32671
1  8.65343  8.89442
1  3.13924  12.3825
1  5.32671  5.94721
1  4.26187  12.1767
1  5.65771  5.52473
1  9.87072  7.13087
1  5.35151  11.8372
1  5.93536  5.06544
1  6.39228  11.3688
1  6.15563  4.57602
1  7.369  10.7783
1  8.26743  10.0745
1  9.07447  9.26743
1  9.77834  8.369
1  10.3688  7.39228
1  10.8372  6.35151
1  11.1767  5.26187
1  3.57135  1.42865
1  11.5732  1.24564
1  11.4498  0.670827
1  11.292  0.10451
1  10.8752  -0.9944
1  10.6178  -1.52298
1  10.329  -2.03506
1  9.66137  -3.0023
1  9.28498  -3.45393
1  8.88201  -3.88201
1  8.0023  -4.66137
1  7.52877  -5.0098
1  7.03506  -5.32901
1  5.9944  -5.87519
1  5.45124  -6.10018
1  4.89549  -6.29195
1  0.428652  1.42865
1  3.75436  -6.57322
1  3.17314  -6.66168
1  2.58764  -6.71488
1  1.41236  -6.71488
1  0.82686  -6.66168
1  0.245643  -6.57322
1  -2.11146  -2.24789
1  -0.89549  -6.29195
1  -2.71405  -1.71405
1  -1.45124  -6.10018
1  -1.9944  -5.87519
1  -3.03506  -5.32901
1  -3.52877  -5.0098
1  -4.0023  -4.66137
1  -4.88201  -3.88201
1  -2.44444  3
1  -5.28498  -3.45393
1  -5.66137  -3.0023
1  -6.32901  -2.03506
1  -6.61782  -1.52298
1  -6.87519  -0.9944
1  -7.29195  0.10451
1  -7.44983  0.670827
1  -7.57322  1.24564
1  -7.71488  2.41236
1  -7.73264  3
1  -7.71488  3.58764
1  -7.57322  4.75436
1  -7.44983  5.32917
1  -7.29195  5.89549
1  -2.71405  7.71405
1  -6.87519  6.9944
1  -2.11146  8.24789
1  -6.61782  7.52298
1  -6.32901  8.03506
1  -5.66137  9.0023
1  -5.28498  9.45393
1  -4.88201  9.88201
1  -4.0023  10.6614
1  -3.52877  11.0098
1  -3.03506  11.329
1  -1.9944  11.8752
1  -1.45124  12.1002
1  -0.89549  12.292
1  3.57135  4.57135
1  0.245643  12.5732
1  0.82686  12.6617
1  1.41236  12.7149
1  2.58764  12.7149
1  3.17314  12.6617
1  3.75436  12.5732
1  4.89549  12.292
1  5.45124  12.1002
1  5.9944  11.8752
1  7.03506  11.329
1  7.52877  11.0098
1  8.0023  10.6614
1  8.88201  9.88201
1  9.28498  9.45393
1  9.66137  9.0023
1  10.329  8.03506
1  10.6178  7.52298
1  10.8752  6.9944
1  11.292  5.89549
1  11.4498  5.32917
1  11.8327  2.10648
1  11.7149  2.41236
1  11.6534  0.927788
1  11.5864  0.637173
1  11.5106  0.348714
1  11.3332  -0.220686
1  10.8769  -1.3222
1  10.7423  -1.58833
1  10.5998  -1.85029
1  9.95243  -2.85151
1  9.58462  -3.32099
1  9.39024  -3.54718
1  9.18913  -3.76741
1  8.76741  -4.18913
1  7.85151  -4.95243
1  7.60865  -5.12554
1  7.36068  -5.29123
1  6.85029  -5.59977
1  5.77833  -6.12171
1  5.50111  -6.23166
1  5.22069  -6.33319
1  4.65129  -6.51063
1  3.48558  -6.76086
1  3.19009  -6.80128
1  2.89352  -6.83275
1  2.2982  -6.86876
1  1.10648  -6.83275
1  0.80991  -6.80128
1  0.514424  -6.76086
1  -0.0722115  -6.65336
1  -1.22069  -6.33319
1  -1.50111  -6.23166
1  -1.77833  -6.12171
1  -2.3222  -5.87693
1  -3.36068  -5.29123
1  -3.60865  -5.12554
1  -3.85151  -4.95243
1  -4.32099  -4.58462
1  -5.18913  -3.76741
1  -5.39024  -3.54718
1  -5.58462  -3.32099
1  -5.95243  -2.85151
1  -1.0796  4.27561
1  -6.59977  -1.85029
1  -6.74234  -1.58833
1  -6.87693  -1.3222
1  -7.12171  -0.778335
1  0.428652  4.57135
1  -7.51063  0.348714
1  -7.58636  0.637173
1  -7.65336  0.927788
1  -7.76086  1.51442
1  -7.86876  2.7018
1  -7.87326  3
1  -7.86876  3.2982
1  -7.83275  3.89352
1  -7.65336  5.07221
1  -7.58636  5.36283
1  -7.51063  5.65129
1  -7.33319  6.22069
1  -6.87693  7.3222
1  -6.74234  7.58833
1  -6.59977  7.85029
1  -5.95243  8.85151
1  -5.58462  9.32099
1  -5.39024  9.54718
1  -5.18913  9.76741
1  -4.76741  10.1891
1  -3.85151  10.9524
1  -3.60865  11.1255
1  -3.36068  11.2912
1  -2.85029  11.5998
1  -1.77833  12.1217
1  -1.50111  12.2317
1  -1.22069  12.3332
1  -0.651286  12.5106
1  0.514424  12.7609
1  0.80991  12.8013
1  1.10648  12.8327
1  1.7018  12.8688
1  2.89352  12.8327
1  3.19009  12.8013
1  3.48558  12.7609
1  4.07221  12.6534
1  5.22069  12.3332
1  5.50111  12.2317
1  5.77833  12.1217
1  6.3222  11.8769
1  7.36068  11.2912
1  7.60865  11.1255
1  7.85151  10.9524
1  8.32099  10.5846
1  9.18913  9.76741
1  9.39024  9.54718
1  9.58462  9.32099
1  9.95243  8.85151
1  10.5998  7.85029
1  10.7423  7.58833
1  10.8769  7.3222
1  11.3332  6.22069
1  11.5106  5.65129
1  11.5864  5.36283
1  11.9334  2.5496
1  11.8688  2.7018
1  11.6895  0.766434
1  11.6546  0.620346
1  11.6176  0.474802
1  11.5369  0.185473
1  11.1281  -0.943556
1  10.8734  -1.48751
1  10.8046  -1.62101
1  10.7338  -1.75346
1  10.4309  -2.27212
1  9.73391  -3.24991
1  9.54161  -3.48065
1  9.44287  -3.59381
1  9.34244  -3.70547
1  9.13656  -3.92417
1  7.77155  -5.09716
1  7.6486  -5.1834
1  7.52436  -5.26778
1  7.27212  -5.43086
1  6.21745  -6.00488
1  5.66606  -6.24309
1  5.52604  -6.29741
1  5.38522  -6.3496
1  5.10129  -6.44758
1  3.9399  -6.75251
1  3.34751  -6.85185
1  3.19857  -6.87108
1  3.04934  -6.88805
1  2.75022  -6.91524
1  1.5496  -6.93337
1  0.950656  -6.88805
1  0.801434  -6.87108
1  0.652486  -6.85185
1  0.355545  -6.80665
1  -0.814527  -6.53694
1  -1.38522  -6.3496
1  -1.52604  -6.29741
1  -1.66606  -6.24309
1  -1.94356  -6.12815
1  -3.01508  -5.58625
1  -3.52436  -5.26778
1  -3.6486  -5.1834
1  -3.77155  -5.09716
1  -4.01347  -4.91915
1  -4.92417  -4.13656
1  -5.34244  -3.70547
1  -5.44287  -3.59381
1  -5.54161  -3.48065
1  -5.73391  -3.24991
1  -6.43086  -2.27212
1  -6.7338  -1.75346
1  -6.8046  -1.62101
1  -6.87339  -1.48751
1  -7.00488  -1.21745
1  -7.44758  -0.101287
1  -7.61759  0.474802
1  -7.65463  0.620346
1  -7.68947  0.766434
1  -7.75251  1.0601
1  -7.91524  2.24978
1  -7.94244  2.84982
1  -7.94358  3
1  -7.94244  3.15018
1  -7.93337  3.4504
1  -7.80665  4.64446
1  -7.68947  5.23357
1  -7.65463  5.37965
1  -7.61759  5.5252
1  -7.53694  5.81453
1  -7.12815  6.94356
1  -6.87339  7.48751
1  -6.8046  7.62101
1  -6.7338  7.75346
1  -6.43086  8.27212
1  -5.73391  9.24991
1  -5.54161  9.48065
1  -5.44287  9.59381
1  -5.34244  9.70547
1  -5.13656  9.92417
1  -4.24991  10.7339
1  -3.77155  11.0972
1  -3.6486  11.1834
1  -3.52436  11.2678
1  -3.27212  11.4309
1  -2.21745  12.0049
1  -1.66606  12.2431
1  -1.52604  12.2974
1  -1.38522  12.3496
1  -1.10129  12.4476
1  0.0601045  12.7525
1  0.652486  12.8518
1  0.801434  12.8711
1  0.950656  12.8881
1  1.24978  12.9152
1  2.4504  12.9334
1  3.04934  12.8881
1  3.19857  12.8711
1  3.34751  12.8518
1  3.64446  12.8067
1  4.81453  12.5369
1  5.38522  12.3496
1  5.52604  12.2974
1  5.66606  12.2431
1  5.94356  12.1281
1  7.01508  11.5862
1  7.52436  11.2678
1  7.6486  11.1834
1  7.77155  11.0972
1  8.01347  10.9191
1  9.34244  9.70547
1  9.44287  9.59381
1  9.54161  9.48065
1  9.73391  9.24991
1  10.7338  7.75346
1  10.8046  7.62101
1  10.8734  7.48751
1  11.1281  6.94356
1  11.5369  5.81453
1  11.6176  5.5252
1  11.6546  5.37965
1  11.6895  5.23357
1  11.9762  2.77394
1  11.9424  2.84982
1  11.7065  0.685169
1  11.6888  0.611933
1  11.6705  0.538833
1  11.6322  0.393059
1  11.4572  -0.183762
1.49575  10.7808  3.79278
1.49575  10.8127  3.26116
1  11.0045  -1.30049
1  10.8705  -1.57049
1  10.8357  -1.63735
1  10.8005  -1.70394
1.49575  10.7799  2.197
1.49575  10.6943  1.53687
1  9.51895  -3.56053
1  9.46919  -3.61712
1  9.419  -3.67334
1  8.89437  -4.21406
1  7.73042  -5.16929
1  7.66857  -5.21234
1  7.60639  -5.25491
1  6.9676  -5.65437
1  5.60887  -6.30329
1  5.53851  -6.33028
1  5.46795  -6.35673
1  4.75212  -6.59171
1  3.27758  -6.89661
1  3.2028  -6.90598
1  3.12796  -6.91478
1  2.3767  -6.97162
1  0.872039  -6.91478
1  0.797197  -6.90598
1  0.722423  -6.89661
1  -0.0206084  -6.77201
1  -1.46795  -6.35673
1  -1.53851  -6.33028
1  -1.60887  -6.30329
1  -2.30049  -6.00449
1  -3.60639  -5.25491
1  -3.66857  -5.21234
1  -3.73042  -5.16929
1  -4.33044  -4.71366
1  -5.419  -3.67334
1  -5.46919  -3.61712
1  -5.51895  -3.56053
1  -5.99249  -2.97455
1  -6.80046  -1.70394
1  -6.83573  -1.63735
1  -6.8705  -1.57049
1  -7.19005  -0.888208
1  -7.67046  0.538833
1  -7.68877  0.611933
1  -7.70653  0.685169
1  -7.85351  1.4241
1  -7.97845  2.92464
1  -7.97873  3
1  -7.97845  3.07536
1  -7.94432  3.82799
1  -7.70653  5.31483
1  -7.68877  5.38807
1  -7.67046  5.46117
1  -7.45721  6.18376
1  -6.8705  7.57049
1  -6.83573  7.63735
1  -6.80046  7.70394
1  -5.99249  8.97455
1  -5.51895  9.56053
1  -5.46919  9.61712
1  -5.419  9.67334
1  -4.89437  10.2141
1  -3.73042  11.1693
1  -3.66857  11.2123
1  -3.60639  11.2549
1  -2.9676  11.6544
1  -1.60887  12.3033
1  -1.53851  12.3303
1  -1.46795  12.3567
1  -0.752121  12.5917
1  0.722423  12.8966
1  0.797197  12.906
1  0.872039  12.9148
1  1.6233  12.9716
1  3.12796  12.9148
1  3.2028  12.906
1  3.27758  12.8966
1  4.02061  12.772
1  5.46795  12.3567
1  5.53851  12.3303
1  5.60887  12.3033
1  6.30049  12.0045
1  7.60639  11.2549
1  7.66857  11.2123
1  7.73042  11.1693
1  8.33044  10.7137
1  9.21406  9.89437
1  9.419  9.67334
1  9.46919  9.61712
1  9.51895  9.56053
1  9.99249  8.97455
1  10.8005  7.70394
1  10.8357  7.63735
1  10.8705  7.57049
1  11.0045  7.30049
1  11.4572  6.18376
1  11.6705  5.46117
1  11.6888  5.38807
1  11.7065  5.31483
1.49575  10.3784  5.74491
1.49575  10.1474  6.36921
1.49575  10.6213  4.84541
1  11.9957  2.88677
1  11.9784  2.92464
1.24575  11.3944  3.27875
1  11.7493  0.791386
1  11.772  0.979392
1.24575  11.3985  2.99488
1.24223  11.4062  2.88084
1  11.7148  0.644392
1  11.6781  0.497936
1.24223  11.3818  2.31313
1.24223  11.3232  1.74792
1.24575  11.2907  1.5808
1.24575  11.1729  0.953099
1  10.9374  -1.47759
1.24575  11.1069  0.676984
1  10.8688  -1.61206
1  10.762  -1.81179
1  10.6544  -1.9676
1.24223  11.0085  0.291256
1.24575  10.95  0.131362
1.24575  10.8353  -0.20446
1.24223  10.7784  -0.380688
1.24575  10.6257  -0.732078
1  9.55695  -3.5436
1.24575  10.2863  -1.43493
1  9.40678  -3.71311
1  7.70958  -5.2053
1  7.585  -5.2906
1  6.27397  -6.03656
1  5.58001  -6.33326
1  5.43864  -6.38627
1  3.98719  -6.7968
1  3.24238  -6.91881
1  3.09244  -6.93644
1  1.58492  -6.98769
1  0.832557  -6.92791
1  0.682746  -6.90914
1.99783  7.69146  -2.28405
1.99783  7.01304  -2.93155
1  -0.793231  -6.59813
1  -1.50942  -6.36003
1  -1.65039  -6.30596
1.99783  6.26152  -3.49256
1.99783  5.44786  -3.95889
1  -3.00905  -5.65076
1  -3.64745  -5.24819
1  -3.77138  -5.16195
1.99783  4.58392  -4.32375
1.99783  3.6823  -4.58181
1  -4.93376  -4.20064
1  -5.45726  -3.65699
1  -5.55695  -3.5436
1.99783  2.75615  -4.72931
1.99783  1.81897  -4.76409
1  -6.4555  -2.33205
1  -6.83369  -1.67891
1  -6.90335  -1.54496
1.99783  0.884429  -4.68566
1.99783  -0.0338417  -4.49516
1  -7.48584  -0.153575
1  -7.69673  0.571095
1  -7.73231  0.717824
1.99783  -0.922454  -4.19536
1.99783  -1.76845  -3.79063
1  -7.9649  2.20817
1  -7.99624  2.96225
1  -7.99567  3.11323
1.99783  -2.5595  -3.28689
1.99783  -3.28405  -2.69146
1  -7.86484  4.61594
1  -7.7148  5.35561
1  -7.67811  5.50206
1.99783  -3.93155  -2.01304
1.99783  -4.49256  -1.26152
1  -7.19146  6.92979
1  -6.86877  7.61206
1.99783  -4.95889  -0.447858
1  -6.4555  8.33205
1.99783  -5.32375  0.416083
1  -5.55695  9.5436
1  -5.40678  9.71311
1.99783  -5.58181  1.3177
1.99783  -5.72931  2.24385
1  -4.31237  10.7511
1  -3.70958  11.2053
1  -3.585  11.2906
1.99783  -5.76409  3.18103
1.99783  -5.68566  4.11557
1  -2.27397  12.0366
1  -1.58001  12.3333
1  -1.43864  12.3863
1.99783  -5.41304  5.31534
1  0.0128102  12.7968
1.99783  -5.07991  6.192
1  0.757616  12.9188
1  0.907564  12.9364
1.99783  -4.79063  6.76845
1.99783  -4.28689  7.5595
1  2.41508  12.9877
1  3.16744  12.9279
1  3.31725  12.9091
1.99783  -3.69146  8.28405
1.99783  -3.01304  8.93155
1  4.79323  12.5981
1  5.50942  12.36
1  5.65039  12.306
1.99783  -2.26152  9.49256
1.99783  -1.44786  9.95889
1  7.00905  11.6508
1  7.64745  11.2482
1  7.77138  11.162
1.99783  -0.583917  10.3237
1.99783  0.317703  10.5818
1  9.35587  9.76886
1  9.45726  9.65699
1  9.55695  9.5436
1.99783  1.24385  10.7293
1.99783  2.18103  10.7641
1  10.762  7.81179
1  10.6544  7.9676
1  10.8337  7.67891
1  10.9374  7.47759
1.99783  3.11557  10.6857
1.24575  9.89531  8.0986
1.24575  9.57306  8.56601
1.99783  4.03384  10.4952
1.24575  10.1888  7.61259
1.24223  10.3841  7.26574
1.24575  10.4523  7.10975
1.24575  10.6014  6.78775
1.24223  10.6821  6.62103
1.24575  10.8144  6.26149
1.24575  10.9089  5.99378
1.24575  11.0734  5.45041
1.24223  11.1106  5.34233
1.24223  11.2217  4.85767
1.24223  11.317  4.29749
1.24575  11.3306  4.12778
1.00102  11.9973  2.94542
1.00102  11.9974  2.98316
1.1225  11.6965  3.08027
1.12075  11.7011  3.02173
1.12075  11.7003  2.87521
1.11899  11.7037  2.81657
1.11547  11.7094  2.69916
1.10844  11.7165  2.4639
1.10844  11.6959  2.17068
1.11547  11.6423  1.8217
1.00102  11.6937  0.554491
1.00278  11.704  0.613899
1.00102  11.7029  0.591111
1.11547  11.6023  1.53101
1.11899  11.5656  1.35859
1.12075  11.5461  1.2727
1.1225  11.5258  1.18703
1.1225  11.4254  0.721804
1.12075  11.4157  0.663902
1.12075  11.3793  0.521961
1.12075  11.3002  0.239808
1.11899  11.2439  0.0425108
1.12075  11.2126  -0.0398265
1.11723  11.0839  -0.429562
1.11723  11.0175  -0.600442
1.11547  10.9858  -0.69039
1.11899  10.9095  -0.849305
1.12075  10.8703  -0.928179
1.1225  10.7844  -1.10643
1.1225  10.5204  -1.62932
1.12075  10.4784  -1.71481
1.11723  10.3917  -1.88462
1.12075  10.1782  -2.21812
1.1225  10.0665  -2.38142
1.00102  9.49705  -3.61387
1.00278  9.48359  -3.62246
1.00102  9.52197  -3.58551
1.00102  9.44689  -3.67029
1.00102  9.47202  -3.64213
1.1225  9.83612  -2.71173
1.12075  9.71705  -2.87872
1.1225  9.47696  -3.17444
1.00102  7.63419  -5.25863
1.00278  7.68127  -5.22097
1.00102  7.66534  -5.23729
1.00102  5.49405  -6.367
1.00278  5.54878  -6.3417
1.00102  5.5294  -6.35373
1.49855  7.9175  -3.52713
1.49855  7.51261  -3.87251
1.49679  7.36796  -3.99108
1.49679  6.93605  -4.30244
1.00102  3.15085  -6.93099
1.00278  3.21004  -6.91953
1.00102  3.18835  -6.92657
1.49855  6.64402  -4.48687
1.49855  5.70772  -4.99206
1.49679  5.5389  -5.07257
1.49679  5.04503  -5.27152
1.00102  0.740772  -6.91783
1.00278  0.800985  -6.92086
1.00102  0.77823  -6.92251
1.49855  4.71735  -5.38071
1.49855  3.68736  -5.64714
1.49679  3.50417  -5.68491
1.49679  2.97704  -5.75988
1.00102  -1.59613  -6.32828
1.00278  -1.53839  -6.34564
1.00102  -1.56088  -6.3418
1.49855  2.63276  -5.78748
1.49855  1.56893  -5.79968
1.49679  1.38203  -5.79251
1.49679  0.852276  -5.73916
1.00102  -3.72404  -5.19661
1.00278  -3.67213  -5.22728
1.00102  -3.69305  -5.21817
1.49855  0.511386  -5.68356
1.49855  -0.524448  -5.44082
1.49679  -0.704202  -5.38913
1.49679  -1.20579  -5.21055
1.00102  -5.51928  -3.58858
1.00278  -5.47623  -3.63078
1.00102  -5.49435  -3.61693
1.49855  -1.52347  -5.07499
1.49855  -2.47111  -4.5914
1.49679  -2.63327  -4.4982
1.49679  -3.07755  -4.20477
1.00102  -6.87754  -1.59765
1.00278  -6.84583  -1.64892
1.00102  -6.86011  -1.63113
1.49855  -3.35355  -3.99712
1.49855  -4.15793  -3.3008
1.49679  -4.29307  -3.1715
1.49679  -4.65422  -2.78027
1.00102  -7.71986  0.660488
1.00278  -7.70135  0.603111
1.00102  -7.71096  0.623803
1.49855  -4.87251  -2.51261
1.49855  -5.48687  -1.64402
1.49679  -5.58715  -1.48614
1.49679  -5.84417  -1.01985
1.00102  -7.9973  3.05458
1.00278  -7.99306  2.99444
1.00102  -7.99744  3.01684
1.49855  -5.99206  -0.707721
1.49855  -6.38071  0.282649
1.49679  -6.44028  0.459946
1.49679  -6.57824  0.974192
1.00102  -7.69373  5.44551
1.00278  -7.70401  5.3861
1.00102  -7.7029  5.40889
1.49855  -6.64714  1.31264
1.49855  -6.78748  2.36724
1.49679  -6.80289  2.55365
1.49679  -6.81378  3.08597
1.49855  -6.79968  3.43107
1.49855  -6.68356  4.48861
1.49679  -6.65392  4.67329
1.49679  -6.5371  5.19275
1.00102  -5.49705  9.61387
1.00278  -5.48359  9.62246
1.00102  -5.52197  9.58551
1.00102  -5.44689  9.67029
1.00102  -5.47202  9.64213
1.49855  -6.44082  5.52445
1.49855  -5.93622  6.82579
1.49679  -5.77997  7.14274
1.00102  -3.63419  11.2586
1.00278  -3.68127  11.221
1.00102  -3.66534  11.2373
1.49679  -5.51564  7.60493
1.49855  -5.4172  7.7545
1.49855  -4.99712  8.35355
1.49679  -4.88505  8.5033
1.49679  -4.54021  8.90897
1.00102  -1.49405  12.367
1.00278  -1.54878  12.3417
1.00102  -1.5294  12.3537
1.49855  -4.3008  9.15793
1.49855  -3.51261  9.87251
1.49679  -3.36796  9.99108
1.49679  -2.93605  10.3024
1.00102  0.849145  12.931
1.00278  0.789955  12.9195
1.00102  0.811655  12.9266
1.49855  -2.64402  10.4869
1.49855  -1.70772  10.9921
1.49679  -1.5389  11.0726
1.49679  -1.04503  11.2715
1.00102  3.25923  12.9178
1.00278  3.19901  12.9209
1.00102  3.22177  12.9225
1.49855  -0.717351  11.3807
1.49855  0.312644  11.6471
1.49679  0.495829  11.6849
1.49679  1.02296  11.7599
1.00102  5.59613  12.3283
1.00278  5.53839  12.3456
1.00102  5.56088  12.3418
1.49855  1.36724  11.7875
1.49855  2.43107  11.7997
1.49679  2.61797  11.7925
1.49679  3.14772  11.7392
1.00102  7.72404  11.1966
1.00278  7.67213  11.2273
1.00102  7.69305  11.2182
1.49855  3.48861  11.6836
1.49855  4.52445  11.4408
1.49679  4.7042  11.3891
1.49679  5.20579  11.2105
1.00102  9.51928  9.58858
1.00278  9.47623  9.63078
1.00102  9.49435  9.61693
1.49855  5.52347  11.075
1.12075  9.04888  9.66523
1.1225  8.90334  9.80973
1.49855  6.0046  10.8475
1.11723  9.33082  9.36697
1.12075  9.43846  9.22747
1.1225  9.49129  9.15705
1.1225  9.67383  8.92798
1.12075  9.80089  8.76699
1.11723  10.0448  8.43692
1.12075  10.1349  8.28546
1.12075  10.2908  8.03735
1.1225  10.3324  7.95978
1.1225  10.5657  7.54495
1.12075  10.6638  7.36479
1.11899  10.71  7.28146
1.11547  10.8002  7.11336
1.11723  10.8332  7.03161
1.11723  10.9077  6.86413
1.12075  11.0499  6.49458
1.11899  11.0878  6.40712
1.00102  11.7019  5.41285
1.00102  11.711  5.3762
1.12075  11.1513  6.21965
1.12075  11.2444  5.94179
1.12075  11.2877  5.80183
1.1225  11.2983  5.75144
1.12075  11.4228  5.30717
1.11899  11.4407  5.25123
1.11547  11.4756  5.13899
1.11547  11.5289  4.88781
1.10844  11.5887  4.66017
1.11547  11.6255  4.30903
1.11547  11.6606  4.01771
1.11899  11.6689  3.84162
1.12075  11.6718  3.75359
1.1225  11.674  3.66558
1  11.447  2.99108
1.00014  11.9996  2.97196
1  11.9962  2.96225
1  11.9917  2.93397
1.00014  11.9993  2.91533
1.06  11.8506  2.95263
1.05825  11.8545  2.89322
1.05825  11.8534  2.81881
1.05737  11.855  2.78907
1.05561  11.8579  2.72958
1.05209  11.8626  2.61047
1.04858  11.8659  2.49121
1.04155  11.8682  2.25236
1.04155  11.8558  2.1034
1.04858  11.7994  1.74831
1.05209  11.7664  1.57184
1.05209  11.7438  1.4245
1  11.7131  0.732008
1.05561  11.705  1.24939
1.00014  11.7247  0.671411
1.00102  11.7296  0.701176
1  11.7215  0.691287
1  11.7038  0.617937
1.00102  11.7119  0.627766
1.05737  11.6844  1.16217
1.00014  11.7023  0.579715
1  11.6967  0.571095
1.05825  11.6738  1.11865
1  11.6856  0.544723
1.00014  11.6885  0.524801
1.06  11.6521  1.03178
1.06088  11.6409  0.988439
1.06  11.5485  0.578571
1.05825  11.5379  0.51998
1.05825  11.5189  0.448022
1.05473  11.4959  0.33114
1.05473  11.4545  0.188026
1.05825  11.3936  0.0194732
1.05737  11.3636  -0.08028
1.05825  11.3475  -0.12206
1.05649  11.2835  -0.320322
1.05297  11.143  -0.712823
1.05297  11.1076  -0.798965
1.05209  11.0909  -0.844399
1  10.8881  -1.52658
1.05561  11.0116  -1.00528
1.00014  10.8849  -1.58821
1.00278  10.851  -1.63909
1.00102  10.8967  -1.56046
1  10.8865  -1.56814
1.05737  10.9709  -1.08512
1  10.8518  -1.63512
1.00102  10.862  -1.62752
1.05825  10.9503  -1.12489
1.00014  10.8235  -1.70523
1.00102  10.809  -1.72761
1  10.7743  -1.74334
1.06  10.9085  -1.20411
1.06088  10.8632  -1.29383
1.06088  10.6419  -1.72356
1.05913  10.5989  -1.81016
1.05825  10.5772  -1.85332
1.05649  10.5329  -1.93934
1.05297  10.4419  -2.11015
1.05473  10.3322  -2.27902
1.05825  10.1027  -2.60963
1.05913  10.0433  -2.69075
1.05913  9.92341  -2.85655
1  9.58332  -3.47925
1  9.61717  -3.44622
1.06088  9.79881  -3.01434
1.00014  9.51624  -3.59538
1  9.50732  -3.60048
1.06  9.73655  -3.09775
1  9.48531  -3.6188
1.00014  9.46622  -3.65195
1  9.45726  -3.65699
1  9.43511  -3.67514
1  9.34607  -3.74705
1  9.31737  -3.78463
1.06088  9.34763  -3.5579
1.05913  9.21062  -3.71465
1.06088  8.93827  -3.98958
1  8.1291  -4.86902
1  7.76638  -5.13857
1.00014  7.73493  -5.19167
1.00102  7.75828  -5.17259
1  7.74571  -5.17467
1  7.68382  -5.21782
1.00102  7.6964  -5.21584
1.00014  7.65735  -5.24544
1  7.64745  -5.24819
1  7.62159  -5.26051
1  7.51794  -5.30902
1  7.48107  -5.33864
1.24891  8.09476  -4.14449
1  6.06782  -6.10715
1  5.65113  -6.28206
1.24803  7.34293  -4.72543
1.00014  5.60789  -6.3261
1.00102  5.63513  -6.31316
1  5.62243  -6.31216
1  5.552  -6.33926
1.00102  5.56469  -6.34034
1.00014  5.5197  -6.35974
1  5.50942  -6.36003
1  5.48137  -6.36581
1.24627  7.18055  -4.84029
1  5.36912  -6.3881
1  5.32623  -6.40804
1.24627  6.94139  -4.99318
1.24803  6.62187  -5.17726
1.24891  6.45951  -5.26453
1  3.77013  -6.81601
1  3.32369  -6.88611
1.24803  5.33886  -5.77959
1.00014  3.27117  -6.91852
1.00102  3.30071  -6.91247
1  3.28862  -6.90847
1  3.21376  -6.91792
1.00102  3.22582  -6.92201
1.00014  3.17749  -6.93008
1  3.16744  -6.92791
1  3.13882  -6.92681
1.24627  5.15371  -5.85225
1  3.0245  -6.92158
1  2.97809  -6.93068
1.24627  4.88491  -5.94346
1.24803  4.53062  -6.04573
1.24891  4.3521  -6.09161
1  1.36957  -6.9544
1  0.919325  -6.91562
1.24803  3.14075  -6.32351
1.00014  0.860577  -6.93452
1.00102  0.890707  -6.93572
1  0.879921  -6.92894
1  0.804972  -6.9202
1.00102  0.815706  -6.92706
1.00014  0.766848  -6.92332
1  0.757616  -6.91881
1  0.73009  -6.91089
1.24627  2.94359  -6.34975
1  0.620336  -6.87846
1  0.573098  -6.87619
1.24627  2.66076  -6.37399
1.24803  2.2923  -6.38849
1.24891  2.10798  -6.39032
1  -0.994352  -6.51427
1  -1.42224  -6.36887
1.24803  0.876335  -6.32559
1.00014  -1.4838  -6.37316
1.00102  -1.45483  -6.38153
1  -1.46368  -6.37237
1  -1.53436  -6.34594
1.00102  -1.52558  -6.35517
1.00014  -1.57212  -6.33985
1  -1.58001  -6.33326
1  -1.60484  -6.31899
1.24627  0.678624  -6.30388
1  -1.70364  -6.26123
1  -1.74897  -6.24772
1.24627  0.398222  -6.25973
1.24803  0.0369903  -6.18563
1.24891  -0.142404  -6.1433
1  -3.18425  -5.5212
1  -3.56491  -5.27763
1.24803  -1.32277  -5.78569
1.00014  -3.62571  -5.26706
1.00102  -3.59959  -5.28213
1  -3.60599  -5.27111
1  -3.66829  -5.22854
1.00102  -3.66197  -5.2396
1.00014  -3.7035  -5.21359
1  -3.70958  -5.2053
1  -3.73027  -5.1855
1.24627  -1.50954  -5.7173
1  -3.81238  -5.10578
1  -3.85315  -5.08181
1.24627  -1.77123  -5.60732
1.24803  -2.10423  -5.44893
1.24891  -2.26828  -5.3649
1  -5.07287  -4.03292
1  -5.38417  -3.70533
1.24803  -3.32877  -4.73521
1.00014  -5.44067  -3.68052
1.00102  -5.41892  -3.70139
1  -5.42249  -3.68917
1  -5.4728  -3.63292
1.00102  -5.46931  -3.64518
1.00014  -5.50341  -3.60998
1  -5.50732  -3.60048
1  -5.52268  -3.5763
1.24627  -3.49375  -4.6241
1  -5.58332  -3.47925
1  -5.61717  -3.44622
1.24627  -3.72151  -4.4547
1.24803  -4.00693  -4.22122
1.24891  -4.14611  -4.10036
1  -6.55043  -2.13591
1  -6.77429  -1.74334
1.24803  -5.02508  -3.23518
1.00014  -6.82321  -1.70572
1.00102  -6.80709  -1.7312
1  -6.80763  -1.71847
1  -6.84302  -1.65182
1.00102  -6.84256  -1.66456
1.00014  -6.86724  -1.62222
1  -6.86877  -1.61206
1  -6.87789  -1.58491
1.24627  -5.15868  -3.08782
1  -6.91355  -1.47616
1  -6.93851  -1.436
1.24627  -5.33928  -2.86883
1.24803  -5.56053  -2.57383
1.24891  -5.66674  -2.42318
1  -7.53107  0.0595838
1  -7.65448  0.494321
1.24803  -6.31312  -1.37278
1.00014  -7.69298  0.54255
1.00102  -7.68342  0.513953
1  -7.6809  0.526442
1  -7.69931  0.599621
1.00102  -7.70192  0.587152
1.00014  -7.71575  0.634159
1  -7.7148  0.644392
1  -7.71716  0.672937
1.24627  -6.40757  -1.19774
1  -7.72575  0.787058
1  -7.74038  0.832033
1.24627  -6.53052  -0.941886
1.24803  -6.67474  -0.602508
1.24891  -6.74181  -0.43082
1  -7.95781  2.42596